# vtk DataFile Version 4.2
vtk output
ASCII
DATASET POLYDATA
POINTS 3370 float
0.841831 0.113365 0.207607 0.842071 0.109332 0.207607 0.842624 0.0992476 0.207607 
0.843542 0.0891909 0.207607 0.844436 0.079133 0.207605 0.84424 0.07249 0.207604 
0.8423 0.0669689 0.207602 0.838448 0.0632466 0.207601 0.833632 0.0607723 0.207602 
0.82891 0.0591717 0.207603 0.824441 0.0589394 0.207605 0.820969 0.0592618 0.207607 
0.816634 0.0596673 0.207606 0.813375 0.0598143 0.207605 0.81004 0.0598151 0.207603 
0.806408 0.0611267 0.207602 0.803152 0.064999 0.207602 0.80144 0.0709633 0.207601 
0.799958 0.0781582 0.207602 0.797925 0.0880472 0.207602 0.796831 0.098086 0.207601 
0.795746 0.108127 0.207599 0.794584 0.118159 0.207597 0.792586 0.128041 0.207595 
0.789824 0.132681 0.207594 0.784297 0.134465 0.207593 0.778722 0.133418 0.207593 
0.769248 0.129935 0.207592 0.761421 0.126485 0.207592 0.753441 0.122825 0.207592 
0.744139 0.118893 0.207593 0.73491 0.114791 0.207594 0.726081 0.109904 0.207595 
0.718236 0.103568 0.207596 0.711762 0.0958364 0.207595 0.706914 0.0869971 0.207596 
0.704145 0.0773098 0.207597 0.70373 0.0672381 0.207596 0.705281 0.0572816 0.207597 
0.70964 0.0482268 0.207599 0.716661 0.0412401 0.2076 0.725586 0.0365836 0.207602 
0.735359 0.0340858 0.207602 0.745417 0.0335142 0.207602 0.755254 0.0356374 0.207602 
0.762941 0.0393733 0.207603 0.769023 0.0431071 0.207603 0.775922 0.0476686 0.207602 
0.783993 0.0537377 0.207601 0.790468 0.0594436 0.207601 0.79344 0.0654057 0.207601 
0.794012 0.0718821 0.207602 0.794231 0.0819747 0.207602 0.793222 0.0920201 0.207601 
0.791632 0.101993 0.207599 0.789511 0.111866 0.207597 0.785966 0.121276 0.207595 
0.781651 0.125151 0.207593 0.775333 0.126023 0.207592 0.765482 0.123897 0.207591 
0.755925 0.120633 0.207591 0.746425 0.117205 0.207589 0.736984 0.113621 0.20759 
0.727942 0.109145 0.207589 0.71989 0.103077 0.207589 0.71323 0.0955074 0.207589 
0.708275 0.0867312 0.207589 0.705562 0.077032 0.20759 0.705494 0.0669614 0.20759 
0.70773 0.0571328 0.20759 0.711402 0.0497941 0.207591 0.718456 0.0426398 0.207592 
0.72743 0.0380862 0.207594 0.737283 0.0359674 0.207595 0.747356 0.0361226 0.207595 
0.757078 0.0387639 0.207595 0.76604 0.043394 0.207595 0.77357 0.0483336 0.207595 
0.780505 0.0537391 0.207594 0.785637 0.0585587 0.207593 0.788962 0.0623796 0.207593 
0.791695 0.0692459 0.207593 0.792384 0.0762172 0.207593 0.792444 0.0846227 0.207593 
0.791291 0.0946522 0.207592 0.789384 0.104567 0.20759 0.786609 0.114271 0.207588 
0.781966 0.121465 0.207586 0.773826 0.123761 0.207584 0.763915 0.121947 0.207583 
0.754281 0.118921 0.207582 0.744723 0.115657 0.207581 0.73528 0.112082 0.207581 
0.726367 0.107361 0.20758 0.71858 0.100959 0.20758 0.71228 0.0930872 0.207579 
0.707855 0.0840359 0.20758 0.705881 0.0741638 0.207581 0.706668 0.0641235 0.207581 
0.709582 0.0550461 0.207581 0.715228 0.0467313 0.207582 0.723365 0.0408249 0.207583 
0.732894 0.0375716 0.207584 0.742935 0.0367356 0.207585 0.752875 0.0383767 0.207586 
0.762187 0.0422409 0.207586 0.770782 0.0475346 0.207585 0.7787 0.0535359 0.207584 
0.785239 0.060105 0.207583 0.788725 0.0648106 0.207582 0.79065 0.0702319 0.207583 
0.791439 0.0780289 0.207582 0.791462 0.0785778 0.207582 0.783607 0.170497 0.233256 
0.934068 0.164705 0.24822 0.934156 0.168742 0.248219 0.933537 0.17379 0.248219 
0.931883 0.178989 0.248218 0.929074 0.184978 0.248216 0.926448 0.188535 0.248215 
0.923574 0.19019 0.248214 0.920509 0.190969 0.248215 0.91734 0.191677 0.248216 
0.912981 0.192503 0.24822 0.908471 0.192331 0.248224 0.903972 0.191247 0.248228 
0.89973 0.189407 0.248231 0.895204 0.187369 0.248233 0.890957 0.185631 0.248236 
0.885955 0.183269 0.24824 0.880051 0.17999 0.248242 0.874741 0.177017 0.248244 
0.870253 0.174454 0.248244 0.867508 0.172733 0.248242 0.863047 0.169 0.248242 
0.859095 0.163593 0.24824 0.854564 0.157328 0.248239 0.848914 0.149784 0.248239 
0.843729 0.141119 0.24824 0.841427 0.133875 0.248239 0.841508 0.126796 0.248239 
0.842388 0.116735 0.248241 0.84295 0.106652 0.248241 0.843047 0.0965536 0.24824 
0.842903 0.0864552 0.248239 0.841993 0.0764127 0.248237 0.837003 0.0678621 0.248235 
0.827763 0.0640705 0.248235 0.817699 0.0638135 0.248235 0.812577 0.0649069 0.248234 
0.806988 0.0683324 0.248235 0.80377 0.0742842 0.248236 0.801297 0.084067 0.248236 
0.799672 0.094034 0.248236 0.798224 0.104029 0.248235 0.797209 0.114074 0.248232 
0.797305 0.124167 0.248229 0.798491 0.134194 0.248227 0.798884 0.137872 0.248226 
0.798176 0.14209 0.248226 0.79478 0.143703 0.248226 0.7912 0.14303 0.248227 
0.786935 0.141279 0.248227 0.777913 0.136741 0.248226 0.768842 0.1323 0.248226 
0.760518 0.127424 0.248226 0.753779 0.123509 0.248224 0.74634 0.119915 0.248224 
0.737121 0.115791 0.248223 0.728034 0.11139 0.248223 0.719802 0.105577 0.248223 
0.712892 0.0982277 0.248223 0.707397 0.0897745 0.248223 0.70381 0.0803545 0.248224 
0.702331 0.070385 0.248225 0.703308 0.060369 0.248226 0.707068 0.0510265 0.248227 
0.713421 0.0432437 0.248228 0.722012 0.0380156 0.248229 0.731712 0.0352487 0.248231 
0.741739 0.0342319 0.248231 0.751658 0.0359275 0.248232 0.760786 0.040201 0.248232 
0.769274 0.0456715 0.248231 0.777648 0.0513168 0.24823 0.785926 0.0570997 0.248229 
0.791016 0.0620524 0.248228 0.793437 0.0697182 0.248227 0.793305 0.0798042 0.248226 
0.792224 0.0898444 0.248225 0.790515 0.0997959 0.248224 0.788121 0.109606 0.248221 
0.784952 0.119185 0.248218 0.781682 0.12387 0.248215 0.775878 0.125665 0.248213 
0.769741 0.124762 0.248212 0.760173 0.121557 0.24821 0.750909 0.117535 0.248209 
0.741525 0.1138 0.248207 0.732217 0.109886 0.248206 0.723436 0.104926 0.248205 
0.716058 0.098067 0.248204 0.710405 0.0897225 0.248204 0.706889 0.0802834 0.248206 
0.705858 0.0702641 0.248207 0.707411 0.0603185 0.248208 0.711803 0.0512661 0.248209 
0.718915 0.0441749 0.24821 0.727988 0.0398253 0.248211 0.737885 0.0379416 0.248212 
0.747924 0.0386906 0.248213 0.757404 0.042094 0.248213 0.766085 0.0472417 0.248213 
0.774244 0.0531913 0.248212 0.78203 0.0596196 0.24821 0.787036 0.0655892 0.248209 
0.789454 0.0739255 0.248207 0.789284 0.0840109 0.248206 0.788004 0.0940258 0.248204 
0.78565 0.103841 0.248202 0.782008 0.113247 0.248199 0.777551 0.118897 0.248196 
0.770093 0.120711 0.248194 0.760213 0.11874 0.248192 0.750711 0.115326 0.24819 
0.741227 0.111855 0.248188 0.731864 0.108076 0.248186 0.723116 0.103063 0.248185 
0.715923 0.0960169 0.248185 0.711682 0.089521 0.248185 0.973353 0.215207 0.388181 
0.972849 0.2112 0.388191 0.972142 0.206813 0.388201 0.971825 0.196741 0.388219 
0.973077 0.186722 0.38823 0.975132 0.176838 0.388235 0.979006 0.167546 0.388233 
0.984728 0.15923 0.388225 0.990745 0.15112 0.388215 0.994292 0.145278 0.388207 
0.996327 0.139392 0.388198 0.996631 0.131254 0.388189 0.994646 0.12181 0.388167 
0.98987 0.113068 0.388163 0.984462 0.109209 0.388163 0.974697 0.106722 0.388162 
0.964635 0.106203 0.38816 0.955024 0.109035 0.388156 0.947615 0.11578 0.388149 
0.943451 0.124913 0.388143 0.942935 0.134945 0.388133 0.945684 0.144625 0.388117 
0.951064 0.15313 0.388097 0.959001 0.159235 0.388072 0.965809 0.159883 0.388053 
0.972085 0.156895 0.388036 0.979283 0.149863 0.388018 0.984338 0.14115 0.388 
0.986791 0.131412 0.387982 0.983777 0.122057 0.387972 0.975737 0.117967 0.387965 
0.965723 0.11714 0.387956 0.956555 0.120982 0.387946 0.951506 0.129537 0.387926 
0.952056 0.139498 0.387896 0.957324 0.147999 0.38786 0.966406 0.151634 0.387822 
0.9746 0.147315 0.387792 0.979405 0.138931 0.387767 0.978925 0.129546 0.387742 
0.972021 0.124177 0.387722 0.963062 0.124501 0.387705 0.956625 0.131715 0.38768 
0.957763 0.141507 0.387639 0.963097 0.146821 0.387604 0.969279 0.147024 0.387574 
0.974191 0.143171 0.387549 0.976612 0.137239 0.387526 0.974218 0.129293 0.387496 
0.966586 0.126755 0.387471 0.959802 0.131086 0.387446 0.959768 0.140772 0.387402 
0.965788 0.145509 0.387359 0.972316 0.142973 0.387321 0.975017 0.136593 0.38729 
0.972797 0.13052 0.387262 0.965796 0.128625 0.387233 0.960286 0.133718 0.387203 
0.961077 0.14065 0.387166 0.967154 0.144445 0.38712 0.973012 0.140395 0.387078 
0.973196 0.132881 0.387039 0.967906 0.129524 0.387009 0.962355 0.131853 0.386983 
0.962356 0.141235 0.386927 0.965847 0.143599 0.386898 0.970722 0.142317 0.386863 
0.973273 0.137757 0.386834 0.971993 0.132382 0.386803 0.965216 0.130638 0.386766 
0.961442 0.135326 0.386734 0.962843 0.141019 0.386696 0.967162 0.143247 0.386659 
0.971423 0.140984 0.386625 0.972814 0.135261 0.386589 0.970005 0.131399 0.386561 
0.964854 0.131355 0.386533 0.961746 0.136622 0.386497 0.963678 0.141416 0.386461 
0.9677 0.142874 0.386426 0.971687 0.140094 0.386391 0.971448 0.133063 0.386345 
0.96621 0.131248 0.386311 0.962267 0.135091 0.386278 0.963146 0.140376 0.386241 
0.966822 0.142666 0.386205 0.97087 0.140903 0.38617 0.972429 0.136413 0.386138 
0.970442 0.132413 0.386109 0.965089 0.131935 0.386076 0.96227 0.137218 0.386036 
0.965274 0.142051 0.385991 0.969355 0.14196 0.385956 0.971923 0.138847 0.385927 
0.971684 0.134169 0.385895 0.967732 0.131584 0.385864 0.963371 0.1337 0.385834 
0.96277 0.138914 0.385796 0.966139 0.142266 0.385756 0.970768 0.140697 0.385714 
0.972192 0.136333 0.385682 0.970084 0.132525 0.385652 0.965083 0.132315 0.38562 
0.962526 0.137048 0.385583 0.965158 0.141775 0.385539 0.968983 0.141996 0.385504 
0.971653 0.139213 0.385475 0.971786 0.134772 0.385444 0.968561 0.131932 0.385415 
0.964168 0.133115 0.385385 0.962611 0.137301 0.385354 0.965098 0.141693 0.385313 
0.968824 0.142046 0.385279 0.97156 0.139398 0.38525 0.97155 0.134315 0.385213 
0.967722 0.131856 0.385182 0.963586 0.133881 0.385152 0.962843 0.1385 0.385118 
0.965815 0.142054 0.385079 0.969958 0.141427 0.385042 0.972084 0.137817 0.385011 
0.970552 0.133031 0.384975 0.965421 0.132344 0.384941 0.962659 0.136892 0.384904 
0.964956 0.141614 0.384861 0.968563 0.142197 0.384828 0.97145 0.139757 0.384799 
0.971577 0.134269 0.384759 0.967671 0.131863 0.384728 0.963565 0.133968 0.384698 
[...]
CELL_DATA 22
FIELD FieldData 2
ReasonForTermination 1 22 int
4 4 4 4 4 4 4 4 6 
4 4 6 1 4 4 4 4 4 
1 4 4 1 
METADATA
INFORMATION 0

SeedIds 1 22 int
0 2 5 6 7 10 13 15 16 
17 18 0 2 5 6 7 10 13 
15 16 17 18 
METADATA
INFORMATION 0

POINT_DATA 3370
VECTORS Normals double
0.02357747056 0.0012921818757 -0.9997211777 0.015606161489 0.00083067396906 -0.99987787139 -0.011903694889 -0.00057542070584 -0.99992898295 
-0.040476296425 -0.0048818663614 -0.99916857277 -0.064740560536 -0.003427222627 -0.99789624409 -0.0718465355 0.010455557889 -0.99736089589 
-0.068696094363 0.045576425472 -0.99659602451 -0.048635514961 0.076175774463 -0.99590754494 -0.036011492928 0.083334064579 -0.99587077779 
-0.018144506945 0.088224621167 -0.9959353358 0.0047067366302 0.071206654777 -0.99745047945 0.0052645814047 0.046708231894 -0.99889470179 
0.0018833884622 0.023530454664 -0.99972134645 0.00042476950533 0.013113401805 -0.99991392543 -0.0018991895212 0.017128249038 -0.99985149706 
0.01630466454 0.021873203284 -0.99962779118 0.020878395227 0.009529197719 -0.99973660881 -0.0043159694829 -0.0020877322807 -0.99998850682 
-0.021493923444 -0.0043467362352 -0.99975952966 -0.011153522949 -0.001897186197 -0.99993599776 -0.0066108479589 -0.0011063897465 -0.99997753604 
-0.0089175201439 -0.0010878672334 -0.99995964638 -0.0012552364033 -0.0011753623265 -0.99999852145 0.012989537584 0.0035722949174 -0.99990925119 
0.012189474888 0.010786023526 -0.99986753043 -0.002107371921 -0.0026953454524 -0.99999414703 0.0068967446391 -0.024545905334 -0.99967491388 
0.020180876337 -0.04889891357 -0.99859983401 0.031437174029 -0.068299676597 -0.99716942305 0.043416194646 -0.099364672846 -0.99410346334 
0.058468878341 -0.13684037644 -0.98886606861 0.079068088689 -0.16488268193 -0.98313881957 0.11114161844 -0.1679849958 -0.9795042531 
0.13882081281 -0.14153409557 -0.98015145856 0.15132676029 -0.10413645777 -0.98298311775 0.15987442912 -0.066707954246 -0.98488081297 
0.16074168632 -0.025248904751 -0.98667350379 0.13509507289 0.0076904653507 -0.99080279472 0.10954415928 0.032080371675 -0.99346410449 
0.08490541851 0.060508154698 -0.99455006567 0.053968172316 0.074343077916 -0.99577133075 0.030164583956 0.082126311721 -0.99616533106 
0.012789981904 0.07718921937 -0.9969344215 -0.0056637136821 0.077208481686 -0.996998883 -0.036262288766 0.098104723157 -0.99451521341 
-0.065117962903 0.11442895484 -0.9912949436 -0.07797413746 0.12090183599 -0.9895972817 -0.083900471168 0.12103374068 -0.98909632724 
-0.084423059869 0.10540000547 -0.99083983863 -0.085659843678 0.073322226872 -0.99362278669 -0.09186157333 0.020447650668 -0.99556182376 
-0.091739062859 0.0045818935992 -0.99577253959 -0.11693286069 -0.0050386823857 -0.9931270401 -0.12677346517 -0.017322321935 -0.9917804322 
-0.12073820668 -0.023357567203 -0.99240954726 -0.1181818506 -0.030430865394 -0.99252557278 -0.099514437305 -0.065308725149 -0.99289055146 
-0.047801866561 -0.10680949547 -0.99312975649 0.0083699748774 -0.1277868266 -0.99176633864 0.046218900517 -0.15189686121 -0.98731512537 
0.066721483145 -0.1849249269 -0.98048509173 0.079246033455 -0.21903560355 -0.97249342957 0.10044047492 -0.24153333048 -0.96518048119 
0.14421025568 -0.2378378776 -0.96053971606 0.18819726805 -0.20303766227 -0.96091492651 0.2164212353 -0.15484984848 -0.96394158191 
0.23747451208 -0.099819113167 -0.96625152044 0.24714347452 -0.035029177626 -0.96834552703 0.22133464899 0.025889034511 -0.97485421015 
0.18313946077 0.064153460433 -0.98099147368 0.15273458595 0.10513668776 -0.9826588539 0.10453927751 0.14567739698 -0.98379349229 
0.056473632857 0.16505585405 -0.9846660824 0.01703371371 0.16666169706 -0.98586699475 -0.022920064419 0.16242301635 -0.98645498347 
-0.068460513245 0.16841418838 -0.9833360663 -0.10749962037 0.17589275323 -0.97852213617 -0.12375124026 0.1777473288 -0.97626406143 
-0.13824772804 0.15850407551 -0.97763184468 -0.13804296016 0.13539586715 -0.98112797346 -0.15100749468 0.10552000288 -0.98288466543 
-0.17757742007 0.031546561724 -0.98360107479 -0.1890544974 0.011015208345 -0.98190481321 -0.20714376136 -0.011733313505 -0.97824015021 
-0.21186582246 -0.033096716955 -0.97673818426 -0.20800356445 -0.049008784451 -0.97689951183 -0.20058199247 -0.077921999118 -0.97657310343 
-0.13265236287 -0.16649962629 -0.97707790123 0.005522960417 -0.2228046413 -0.97484746947 0.067543068228 -0.24445277079 -0.96730593753 
0.092128739322 -0.27526840902 -0.95694283967 0.10718439785 -0.30658335581 -0.94578969692 0.13777025496 -0.32078045612 -0.93708017577 
0.19794912143 -0.29945415647 -0.93335060588 0.25209552327 -0.24875822354 -0.9351829732 0.29025150714 -0.18637073397 -0.9386266628 
0.32082374313 -0.11048126147 -0.9406731721 0.32923887633 -0.018988221834 -0.94405572386 0.2944097415 0.059418794528 -0.95383033657 
0.24628220982 0.11406782374 -0.96246226145 0.18478504294 0.18014430214 -0.96612758904 0.11441570381 0.22512098007 -0.96758957779 
0.049579126908 0.2433018402 -0.96868267494 -0.0090882003187 0.24152018291 -0.97035323767 -0.06858066931 0.23464948091 -0.9696578329 
-0.12364164052 0.23458921735 -0.96419948342 -0.15893961449 0.2333873703 -0.95930627765 -0.18366539621 0.2092375721 -0.96046169141 
-0.19422715702 0.16871344891 -0.96633926943 -0.21672844302 0.12155050746 -0.96863525443 -0.24664206089 0.048200620859 -0.96790722383 
-0.26223623211 0.012414178531 -0.96492385541 -0.26323152113 0.011035922111 -0.96466956763 1 0 0 
0.00087189132983 0.00019858349259 0.99999960018 -0.012233855645 -0.00017489622546 0.99992514829 -0.018832630203 -0.004169811743 0.99981395505 
0.00030053508691 0.00033869909422 0.99999989748 0.029443673003 0.016933834116 0.99942299122 0.021526623576 0.023959576479 0.99948113698 
0.0017928575121 0.0050771196232 0.99998550415 -0.0063280548035 -0.030753460294 0.99950696866 -0.015800099675 -0.071336271339 0.99732717462 
-0.011798380301 -0.13667985646 0.9905450091 0.034301573937 -0.21883819912 0.97515806136 0.099390919393 -0.28998037217 0.95185756755 
0.16669114303 -0.34335236408 0.92429606562 0.16546896418 -0.39991395016 0.90149257033 0.18070162022 -0.42262561793 0.88810726352 
0.22187781498 -0.42369435504 0.87821029869 0.23885106963 -0.42209124788 0.87452223814 0.23175656816 -0.41478156853 0.87991200897 
0.23589638608 -0.4016457167 0.88489186531 0.26499698045 -0.39880098837 0.87791478631 0.41366779274 -0.36320276656 0.83484292392 
0.5374876734 -0.36614104738 0.75963658046 0.55004265027 -0.42849188947 0.71683176795 0.59737858701 -0.39088461193 0.70024855868 
0.61748895587 -0.32529164809 0.7161652973 0.63974814566 -0.064514260935 0.76587219578 0.60171354821 0.047438659842 0.79730193744 
0.57550122925 0.044011857413 0.81661575514 0.56235969907 0.017766651256 0.82670182954 0.5610829092 -0.0044509426201 0.82774764156 
0.57184460674 -0.013413728916 0.82025228901 0.57239744537 -0.12892891946 0.80977682003 0.37928902836 -0.46940402363 0.79737048827 
0.10273869695 -0.61953852841 0.77821383435 -0.07749787745 -0.64978839554 0.75615416418 -0.19768003791 -0.63469383003 0.74705176845 
-0.49927994791 -0.44185463657 0.74530799926 -0.62925190426 -0.22155550709 0.74495315172 -0.65301167713 -0.12512485628 0.74694010461 
-0.64753273078 -0.094588173924 0.75614445705 -0.6394965378 -0.088448278427 0.76368912535 -0.64632184206 -0.032527509069 0.76237132529 
-0.66524361825 0.048133772626 0.74507319661 -0.70396578971 0.096806239194 0.70360551375 -0.73636690787 0.039822392255 0.67540947141 
-0.65324885979 -0.40206486632 0.64156821185 0.0020873749894 -0.77310498051 0.63427465027 0.23490828697 -0.72370404203 0.64889949627 
0.32203308986 -0.6787391571 0.66000594365 0.33430530035 -0.67130610898 0.66150440225 0.34206016639 -0.67419333631 0.65456717596 
0.40615016584 -0.64095391397 0.65132182748 0.35234885332 -0.6741316551 0.64915082775 0.31807173419 -0.69564136584 0.64413776636 
0.3166538288 -0.70826442855 0.6309452052 0.38555171431 -0.69329078286 0.60884954299 0.53485817368 -0.59946761081 0.59545387532 
0.6257283336 -0.49770485967 0.6006279424 0.70776328624 -0.36288272332 0.60612478894 0.76532551944 -0.20116935283 0.61139818513 
0.77580292876 -0.028327940758 0.63033907027 0.72921993125 0.18536976681 0.65869290373 0.63615978315 0.36122009507 0.68177765674 
0.46563565147 0.54425378392 0.69783326 0.26380767069 0.64889253658 0.71368339539 0.13894008446 0.67857819868 0.72126782903 
-0.014910036369 0.68591961301 0.72752455306 -0.21012036858 0.64418360833 0.73544334212 -0.34232813937 0.58018733163 0.7390494606 
-0.37540802215 0.56019407575 0.73841141269 -0.38257117662 0.56728878521 0.72926176987 -0.41783658515 0.55385009977 0.72018237627 
-0.57716252559 0.38137308012 0.72210663535 -0.68170218955 0.067242368201 0.72853317611 -0.67974594453 -0.053042985791 0.73152709625 
-0.67112691916 -0.09067961718 0.7357756896 -0.65673972242 -0.13872475205 0.7412478534 -0.64807732369 -0.17616183758 0.74092023154 
-0.62839660551 -0.28448952612 0.72400512132 -0.45416636942 -0.55297766204 0.6985331876 0.0041830344018 -0.74791540139 0.66378087845 
0.1830907064 -0.74414334907 0.64243946739 0.29543822519 -0.71854369841 0.62961195078 0.3041918956 -0.72053456579 0.62313500154 
0.28843918801 -0.73686672283 0.61141660724 0.34000313353 -0.72931078661 0.5937201746 0.47376868359 -0.6649456718 0.57739976446 
0.62473796947 -0.52945096596 0.57391998061 0.72337231999 -0.37831461649 0.57759028526 0.79326627731 -0.18596863437 0.57977951008 
0.80771887817 0.018460598819 0.58927872874 0.75633801782 0.23609829269 0.61009048426 0.63755345863 0.44107128097 0.63164999208 
0.43220052589 0.62766805931 0.64748398647 0.22704956088 0.71513816583 0.66107934522 0.046273141024 0.73965424239 0.67139436856 
-0.15611442601 0.71633446375 0.68006854216 -0.323521448 0.65102024589 0.68666331789 -0.4059268601 0.60095581472 0.68853140306 
-0.44578164542 0.57695940994 0.68439503497 -0.50174657985 0.54223517866 0.67396689877 -0.6450579277 0.36609047742 0.6707294777 
-0.73057215695 0.066911987133 0.67954919577 -0.72309887769 -0.061344021536 0.6880152063 -0.70937529752 -0.12494157967 0.693668717 
-0.6871298408 -0.20965318172 0.69562786407 -0.64810566991 -0.33326497274 0.6847579854 -0.4360855981 -0.61296447208 0.65886562143 
0.037334151012 -0.78632005158 0.61669030935 0.23576892133 -0.77150748572 0.59092234279 0.28924493727 -0.76235973804 0.57891708912 
0.2820262063 -0.77579046113 0.56445582589 0.35214759904 -0.76130477975 0.54443282489 0.50436391184 -0.68333884931 0.52788735679 
0.6688152941 -0.52761184601 0.5237478805 0.75288542928 -0.39665097797 0.52519666036 0.0085126858793 -0.0035390041002 -0.99995750391 
0.031339768218 -0.0071648131978 -0.9994831086 0.044072667749 -0.0078806482922 -0.99899724491 0.011794171322 -0.00080156512184 -0.99993012507 
-0.059685871624 -0.010485867201 -0.99816213278 -0.11513704941 -0.031481632118 -0.99285062658 -0.12077106175 -0.070492106668 -0.99017433492 
-0.10718859239 -0.079528044513 -0.9910529228 -0.095950388393 -0.064910240716 -0.99326742805 -0.085991357699 -0.041982423041 -0.9954109516 
-0.078749566809 -0.013737155934 -0.99679977742 -0.072786056016 0.0083067070625 -0.99731298431 -0.055846754752 0.020138654423 -0.99823623185 
-0.023700665162 0.021321397404 -0.99949170906 -0.0013780227604 0.0038218010019 -0.99999174741 0.0081473233506 -0.051367981578 -0.9986465599 
-0.0081591420737 -0.098434018301 -0.99511013081 -0.06438495912 -0.11540122707 -0.99123011144 -0.11772853232 -0.085246497235 -0.9893801228 
-0.12587739629 -0.030974645364 -0.99156212738 -0.08851886023 0.0095655636238 -0.99602856956 -0.033164866299 0.012887773697 -0.99936679799 
0.0057855033169 -0.0078199325405 -0.99995268718 0.0070885058049 -0.024119543751 -0.9996839504 -0.006743516804 -0.017368500202 -0.99982641503 
-0.012741394942 -0.014206490811 -0.99981789966 -0.016435505735 -0.01036017756 -0.99981125262 0.0021189919316 0.0028626004636 -0.99999365768 
0.040798516316 0.0029681239835 -0.99916298536 0.072333088626 -0.067849361841 -0.99507004195 0.048332416583 -0.18770899085 -0.98103481705 
-0.029317713044 -0.275564866 -0.96083530136 -0.20919810487 -0.24228547261 -0.94738265906 -0.30216506586 -0.071659243167 -0.95055837582 
-0.23829392643 0.074527642916 -0.96832930094 -0.1229486798 0.1227170006 -0.98479650685 0.0064072437002 0.10534438196 -0.99441515898 
0.045908002355 0.048357408514 -0.99777453183 0.07469454917 0.024260406951 -0.99691130848 0.12091687295 -0.056775464773 -0.99103766651 
0.068660991259 -0.22512493634 -0.97190762489 -0.11670432285 -0.29073302626 -0.9496601542 -0.30081266111 -0.089909197534 -0.94943566349 
-0.19411296714 0.097875091132 -0.97608433167 -0.054311635016 0.10648038699 -0.99283038506 0.011944756826 0.041844317219 -0.9990527393 
0.0050477385085 0.0079679131977 -0.99995551536 0.018705777553 0.009665314966 -0.99977831321 0.065738216518 -0.062662467241 -0.9958674119 
-0.01707827253 -0.19429688799 -0.98079409252 -0.1893180639 -0.11585608048 -0.97505694157 -0.10017596277 0.046832838968 -0.99386692352 
-0.0031718923115 -0.022389645931 -0.99974428873 -0.079965696043 -0.071054180039 -0.99426193277 -0.10267426816 0.00099236786679 -0.99471453687 
-0.020817186159 0.030666332446 -0.99931287434 -0.0080906843966 -0.06416123173 -0.99790674773 -0.06186388493 -0.020810352503 -0.99786762096 
0.036300682057 -0.032384978717 -0.99881603593 -0.013482434147 -0.19289025431 -0.98112770512 -0.24035313666 -0.12096029315 -0.96311939923 
-0.19522963852 0.11120586288 -0.97443247293 -0.0052348467526 0.12772247443 -0.99179613122 0.07772503953 0.042073418606 -0.99608666575 
0.18555398587 -0.12740883083 -0.97433911353 0.060368418535 -0.32097226283 -0.94516266353 -0.26797010959 -0.31590042517 -0.91016423888 
-0.42158907264 -0.062875434141 -0.90460451779 -0.27808354647 0.24953582936 -0.92757825063 0.099973336765 0.25967166151 -0.96050817807 
0.29479777859 0.052374591294 -0.95412324776 0.32555586073 -0.26374242182 -0.90799411698 -0.013730240943 -0.53155578713 -0.84691199404 
-0.47398891128 -0.36287869806 -0.8022802269 -0.57125869433 0.12041269454 -0.81188933183 -0.23864981928 0.46233601091 -0.85398575911 
0.21845783525 0.39891285813 -0.89058672 0.49539086383 0.0090635791383 -0.86862290067 0.41862288779 -0.43626730904 -0.79650845123 
-0.092825807167 -0.69010122235 -0.71773509907 -0.65046416542 -0.36613949003 -0.66546092548 -0.55700430577 0.44093169701 -0.70379360748 
0.14676102039 0.62225722949 -0.76893246988 0.62098997903 0.17643064644 -0.76370391706 0.60653795591 -0.41772723797 -0.67647295784 
0.060325047461 -0.81573775988 -0.57526758623 -0.65146298583 -0.57069352276 -0.49990487212 -0.86343994468 0.045889525232 -0.50236004359 
-0.49484876753 0.66444000469 -0.56003944276 0.36435634039 0.6879079288 -0.62771581046 0.81137959015 -0.051389281624 -0.58225621715 
0.40340836756 -0.80022468056 -0.44373657681 -0.44600258544 -0.82808559695 -0.33964089551 -0.89874844029 -0.31477612715 -0.30523307628 
-0.82767228152 0.44318778505 -0.34430100433 -0.057083055329 0.90201347903 -0.42791729158 0.7330187553 0.50482663705 -0.45588767355 
0.87685140362 -0.31521085495 -0.36300651908 0.25243601986 -0.94182934742 -0.2218863137 -0.74909968477 -0.65319925297 -0.11036484132 
-0.99044294458 0.077715757406 -0.11394311992 -0.5471071342 0.81658244375 -0.18402960705 0.47605973465 0.8399223252 -0.2605717112 
0.97781522469 -0.022393227844 -0.20826888799 0.50658850236 -0.86067757305 -0.051011807738 -0.39631938542 -0.91587479516 0.06406484473 
-0.91081509274 -0.39825891481 0.10865405475 -0.92533425119 0.37147917763 0.075892978402 -0.2368287563 0.9715182307 -0.0080291722591 
0.68867578753 0.72270964807 -0.058450186075 0.99792892139 -0.064158678909 0.0046402349965 0.52344802368 -0.8377734799 0.15536332542 
-0.34592994427 -0.89922897526 0.26780538401 -0.85594995785 -0.41084626055 0.3139347382 -0.84956544501 0.44955921724 0.27592583214 
-0.057051944518 0.98048053995 0.18815681336 0.8065444936 0.56954816503 0.15843253314 0.9366565292 -0.24915740109 0.24616079254 
0.34573160647 -0.85573592311 0.38494893972 -0.52704963083 -0.69621544744 0.48734252574 -0.84973228546 -0.15012553604 0.50538833235 
-0.59688109866 0.66606744627 0.44731097805 0.40644944745 0.83604882227 0.36853929702 0.91121850094 0.021149459104 0.41138004803 
0.47941171411 -0.68747547433 0.54547399624 -0.22297587552 -0.73710338896 0.63793444249 -0.6351227423 -0.36891040241 0.67861934632 
-0.66816877477 0.36236490625 0.64980163369 -0.032752659703 0.81514926913 0.57832424496 0.68650718937 0.46973001906 0.55503296131 
0.75467673111 -0.19473486844 0.62653121433 0.25568693223 -0.62964652203 0.73360033396 -0.37149414073 -0.46121714731 0.80577344609 
-0.56802031082 -0.10921699178 0.81573560374 -0.3670063742 0.51973931898 0.77147738891 0.42502818355 0.54734797827 0.72094468156 
0.62032881959 -0.12742952507 0.77392110175 0.2353865203 -0.45820592989 0.8571117266 -0.20875007982 -0.35948448596 0.90950223118 
-0.35804687681 -0.137552464 0.92351597369 -0.35735490807 0.23382465423 0.90422535949 -0.20532661718 0.50739043715 0.83689660327 
-0.00041480993125 0.00027779204098 0.99999987538 -0.01772201303 -0.021219087327 0.99961776724 -0.0075997610164 -0.10281086072 0.9946718909 
0.036930361746 -0.18235419483 0.9825391066 0.054981082999 -0.22390416278 0.97305909708 0.081968995434 -0.24139815548 0.96695812439 
0.14163702718 -0.23022357062 0.96277518667 0.21229664081 -0.19146505706 0.9582647172 0.25788512279 -0.1378691147 0.95628833029 
0.27259971084 -0.048435747798 0.96090757932 0.25207306765 0.027760328913 0.96730994656 0.2218126406 0.089593752512 0.97096452663 
0.1743867234 0.14414376255 0.97406973386 0.10674205472 0.18190906081 0.97750459198 0.042911580007 0.19000865386 0.98084418118 
-0.010736064549 0.17839386115 0.98390058808 -0.055006064377 0.15720095107 0.9860335663 -0.083669785469 0.13622838981 0.98713787933 
-0.099647011784 0.12369800954 0.98730404409 -0.11284303046 0.11279575046 0.98718973311 -0.13824028834 0.062325572446 0.98843570641 
-0.13684689946 0.0024270311099 0.99058923658 -0.12250420756 -0.021516782051 0.99223472385 -0.11322688611 -0.036740442856 0.99288962736 
-0.11749588244 -0.063883282453 0.99101647001 -0.10128335397 -0.15872597267 0.98211391794 0.018151296061 -0.27472394176 0.96135180152 
0.077976131339 -0.33405258916 0.93932347496 0.097949740941 -0.36913970244 0.92419788375 0.13889683747 -0.37872023592 0.91502931726 
0.23456693558 -0.34640022527 0.90828697925 0.33025070316 -0.28155593965 0.90092215308 0.39174718947 -0.19503570944 0.8991636178 
0.41606011165 -0.062712566574 0.90717204404 0.39583891804 0.051092254927 0.91689755832 0.35561597903 0.14995294844 0.9225244651 
0.28410723139 0.24230719122 0.92766928706 0.17732621131 0.31171586975 0.93348199304 0.073767092918 0.33572435643 0.93906739508 
-0.020664893722 0.32805090177 0.94443399347 -0.10430510137 0.29950381809 0.94837645942 -0.16153559096 0.26571016125 0.95042325469 
-0.19244124523 0.24346024862 0.95062793693 -0.21536597543 0.22522870487 0.95020499216 -0.2738449411 0.13340304805 0.95247707322 
-0.29035761373 0.0057198722993 0.95690111256 -0.27483325406 -0.046416220854 0.96037087467 -0.26026591698 -0.080488979261 0.9621762711 
-0.25354849078 -0.12735723697 0.95890213109 -0.20370353112 -0.26086163683 0.94363980302 -0.011051407504 -0.4042282562 0.91459137503 
0.098558380431 -0.45215334573 0.88647819916 0.12417962226 -0.49056576286 0.86251066876 0.15537741633 -0.50945833469 0.84635102866 
0.23626249509 -0.49459094446 0.83639693392 0.37870268793 -0.41484499153 0.82733784342 0.47243203061 -0.32479939023 0.81933712998 
0.53823036306 -0.17758087495 0.82387687741 0.54676197314 -0.012637462848 0.83719271333 0.51491989863 0.12709039699 0.84776501992 
0.44996713736 0.25919323779 0.85460425975 0.33659463818 0.38071720169 0.86125400544 0.18355602722 0.4588814697 0.86933019137 
0.055048564214 0.47696952743 0.87719423475 -0.081156170422 0.46062947547 0.8838745173 -0.18928864009 0.41801891737 0.88849873126 
-0.25481799539 0.37701296009 0.89046561817 -0.2927549835 0.35008302245 0.88979570522 -0.33241543035 0.31289438603 0.88971741854 
-0.43027816622 0.12025395999 0.89465059369 -0.43318470005 -0.024698541887 0.90096670175 -0.41509198436 -0.085466393797 0.9057561151 