# vtk DataFile Version 4.2
vtk output
ASCII
DATASET POLYDATA
POINTS 62042 float
0.575868 0.164099 0.91475 0.413557 0.322005 0.480263 0.412271 0.243974 0.456164 
0.388628 0.257807 0.453317 0.459196 0.272082 0.74032 0.701024 0.147932 0.207095 
0.722267 0.0250951 0.224227 0.51193 0.229206 0.418809 0.739434 0.409115 0.477329 
0.985585 0.268981 0.456122 0.482979 0.181954 0.713442 0.804461 0.067667 0.38024 
0.492954 0.15958 0.0827515 0.699701 0.057281 0.955109 0.850216 0.219503 0.747964 
0.625699 0.164984 0.573216 0.28854 0.281201 0.446554 0.29746 0.405641 0.504361 
0.486177 0.303555 0.1557 0.784039 0.0833039 0.582492 0.640164 0.0188989 0.733837 
0.617382 0.401514 0.447087 0.807844 0.447929 0.649723 0.67738 0.260966 0.291692 
0.366316 0.456914 0.49957 0.636914 0.472441 0.703943 0.713504 0.407103 0.495618 
0.461334 0.420779 0.500765 0.416206 0.202362 0.292188 0.555255 0.122474 0.734724 
0.946545 0.440528 0.308141 0.884215 0.176601 0.296419 0.968629 0.382802 0.678862 
0.714845 0.16932 0.0634466 0.742711 0.461051 0.735311 0.452268 0.436567 0.68841 
0.524443 0.276002 0.340006 0.452032 0.0725987 0.484577 0.379195 0.0705308 0.684353 
0.541022 0.454047 0.633741 0.827402 0.00388615 0.634502 0.516626 0.157784 0.895319 
0.31694 0.186409 0.685141 0.806453 0.0787343 0.965048 0.403648 0.108601 0.660323 
0.962256 0.197285 0.443062 0.836343 0.312937 0.169199 0.474179 0.338943 0.629867 
0.870326 0.385638 0.744634 0.266106 0.0935722 0.409394 0.460387 0.380346 0.273625 
0.903312 0.20145 0.608036 0.887432 0.442612 0.439464 0.713017 0.223844 0.485457 
0.416129 0.406177 0.571179 0.301988 0.00362064 0.764684 0.932469 0.404671 0.512329 
0.768701 0.262472 0.601111 0.31346 0.139627 0.317649 0.765032 0.0608243 0.327214 
0.928269 0.412608 0.323643 0.604493 0.344163 0.153487 0.961966 0.350543 0.387082 
0.760788 0.118121 0.648969 0.80234 0.271555 0.923011 0.930196 0.440466 0.684126 
0.976976 0.0106936 0.545472 0.912508 0.498446 0.577514 0.980762 0.130157 0.274705 
0.394381 0.0261202 0.0980066 0.916609 0.351595 0.529648 0.629402 0.135495 0.313227 
0.992726 0.247132 0.547582 0.469071 0.124084 0.586865 0.64331 0.224039 0.339228 
0.569792 0.0423798 0.311146 0.574261 0.355645 0.814595 0.527102 0.156278 0.11491 
0.806965 0.310594 0.709819 0.571255 0.482807 0.664579 0.620879 0.0762758 0.945087 
0.409414 0.0352952 0.619458 0.680243 0.42181 0.442588 0.489545 0.07799 0.428563 
0.510397 0.482157 0.50837 0.251835 0.153907 0.725621 0.69261 0.149284 0.253226 
0.618372 0.0807273 0.121611 0.365781 0.169707 0.827291 0.985005 0.217969 0.750026 
0.857881 0.326085 0.751929 0.426813 0.219467 0.123758 0.745094 0.111224 0.818147 
0.852105 0.258582 0.0769208 0.406985 0.375265 0.221097 0.653925 0.19555 0.441986 
0.586245 0.401473 0.466867 0.565046 0.372889 0.794772 0.962142 0.257199 0.839526 
0.772027 0.367152 0.508164 0.942206 0.146997 0.702186 0.428388 0.0815348 0.0698196 
0.996043 0.277671 0.331252 0.188087 0.0897036 0.601372 0.572644 0.413731 0.763901 
0.656825 0.479313 0.264305 0.221039 0.255651 0.608325 0.863756 0.227731 0.370071 
0.844127 0.20286 0.585505 0.493196 0.147837 0.508863 0.431237 0.0835949 0.71609 
0.245512 0.213231 0.318763 0.681414 0.207704 0.633389 0.566713 0.206067 0.31742 
0.648994 0.186484 0.901576 0.722604 0.364621 0.541362 0.354088 0.325513 0.387766 
0.903234 0.156966 0.453478 0.682852 0.125326 0.00472126 0.711264 0.495207 0.373016 
0.914433 0.0560173 0.614371 0.544913 0.163767 0.110797 0.394857 0.244135 0.840723 
0.762614 0.356704 0.268507 0.487054 0.186334 0.350908 0.702523 0.335135 0.656294 
0.457626 0.430408 0.738139 0.249803 0.157994 0.558706 0.8293 0.0555432 0.240867 
0.99252 0.0845105 0.479371 0.628638 0.0953408 0.154435 0.806482 0.0631003 0.450155 
0.378735 0.211192 0.744431 0.269714 0.238224 0.598065 0.760701 0.322336 0.21299 
0.680433 0.0253099 0.506323 0.789688 0.167613 0.930018 0.890146 0.158812 0.627715 
0.69463 0.344647 0.567458 0.301711 0.219505 0.573486 0.565207 0.42247 0.21704 
0.340233 0.364023 0.43 0.711133 0.263384 0.528701 0.54268 0.360734 0.637412 
0.423435 0.192079 0.500339 0.513951 0.00902778 0.156516 0.447377 0.334365 0.192039 
0.535028 0.0150699 0.592166 0.98933 0.100655 0.204323 0.526269 0.402669 0.486594 
0.839424 0.181625 0.905809 0.776186 0.472261 0.323086 0.949362 0.42416 0.632519 
0.912142 0.0107396 0.533295 0.873162 0.210462 0.157482 0.680811 0.0794639 0.219669 
0.681879 0.0774696 0.219669 0.682213 0.0760597 0.21967 0.682387 0.0746535 0.219672 
0.682956 0.0728786 0.219674 0.68306 0.0716531 0.219676 0.68306 0.0701736 0.219682 
0.68306 0.069973 0.219698 0.68306 0.069973 0.2199 0.68306 0.069973 0.220102 
0.68306 0.069973 0.220304 0.68306 0.069973 0.220506 0.68306 0.069973 0.220707 
0.68306 0.069973 0.220909 0.68306 0.069973 0.221111 0.68306 0.069973 0.221313 
0.68306 0.069973 0.221515 0.68306 0.069973 0.221717 0.68306 0.069973 0.221919 
0.68306 0.069973 0.222121 0.68306 0.069973 0.222323 0.68306 0.069973 0.222525 
0.68306 0.069973 0.222727 0.68306 0.069973 0.222929 0.68306 0.069973 0.223131 
0.68306 0.069973 0.223333 0.68306 0.069973 0.223535 0.68306 0.069973 0.223737 
0.68306 0.069973 0.223939 0.68306 0.069973 0.224141 0.68306 0.069973 0.224343 
0.68306 0.069973 0.224545 0.68306 0.069973 0.224747 0.68306 0.069973 0.224949 
0.68306 0.069973 0.225151 0.68306 0.069973 0.225353 0.68306 0.069973 0.225555 
0.68306 0.069973 0.225757 0.68306 0.069973 0.225959 0.68306 0.069973 0.226161 
0.68306 0.069973 0.226363 0.68306 0.069973 0.226565 0.68306 0.069973 0.226767 
0.68306 0.069973 0.226969 0.68306 0.069973 0.227171 0.68306 0.069973 0.227373 
0.68306 0.069973 0.227575 0.68306 0.069973 0.227777 0.68306 0.069973 0.227979 
0.68306 0.069973 0.228181 0.68306 0.069973 0.228383 0.68306 0.069973 0.228585 
0.68306 0.069973 0.228787 0.68306 0.069973 0.228989 0.68306 0.069973 0.229191 
0.68306 0.069973 0.229393 0.68306 0.069973 0.229595 0.68306 0.069973 0.229797 
0.68306 0.069973 0.229999 0.68306 0.069973 0.230201 0.68306 0.069973 0.230403 
0.68306 0.069973 0.230605 0.68306 0.069973 0.230807 0.68306 0.069973 0.231009 
0.68306 0.069973 0.231211 0.68306 0.069973 0.231413 0.68306 0.069973 0.231615 
0.68306 0.069973 0.231817 0.68306 0.069973 0.232019 0.68306 0.069973 0.232221 
0.68306 0.069973 0.232423 0.68306 0.069973 0.232625 0.68306 0.069973 0.232827 
0.68306 0.069973 0.233029 0.68306 0.069973 0.233231 0.68306 0.069973 0.233433 
0.68306 0.069973 0.233635 0.68306 0.069973 0.233837 0.68306 0.069973 0.234039 
0.68306 0.069973 0.234241 0.68306 0.069973 0.234443 0.68306 0.069973 0.234645 
0.68306 0.069973 0.234847 0.68306 0.069973 0.235049 0.68306 0.069973 0.235251 
0.68306 0.069973 0.235453 0.68306 0.069973 0.235655 0.68306 0.069973 0.235857 
0.68306 0.069973 0.236059 0.68306 0.069973 0.236261 0.68306 0.069973 0.236463 
0.68306 0.069973 0.236665 0.68306 0.069973 0.236867 0.68306 0.069973 0.237069 
0.68306 0.069973 0.237271 0.68306 0.069973 0.237473 0.68306 0.069973 0.237675 
0.68306 0.069973 0.237877 0.68306 0.069973 0.238079 0.68306 0.069973 0.238281 
0.68306 0.069973 0.238483 0.68306 0.069973 0.238685 0.68306 0.069973 0.238887 
0.68306 0.069973 0.239089 0.68306 0.069973 0.239291 0.68306 0.069973 0.239493 
0.68306 0.069973 0.239695 0.68306 0.069973 0.239897 0.68306 0.069973 0.240056 
0.574639 0.344535 0.798587 0.89901 0.123343 0.79089 0.677043 0.353789 0.673022 
0.251565 0.164729 0.258527 0.612221 0.164347 0.744785 0.315237 0.0266361 0.840519 
0.648789 0.16649 0.941468 0.537253 0.107052 0.424085 0.396377 0.140653 0.333323 
0.767211 0.113833 0.967092 0.606232 0.10822 0.293113 0.54808 0.318082 0.316969 
0.704125 0.168828 0.263834 0.55927 0.321026 0.818095 0.940615 0.132697 0.811258 
0.83617 0.477858 0.435369 0.514356 0.387005 0.80405 0.64207 0.221869 0.708237 
0.537452 0.191014 0.396622 0.528332 0.103371 0.793118 0.324612 0.136189 0.153321 
0.881884 0.142111 0.368463 0.646848 0.306989 0.724706 0.46203 0.425258 0.253931 
0.478868 0.201167 0.794959 0.470972 0.376331 0.599504 0.661581 0.390224 0.417217 
0.970595 0.397524 0.641913 0.8208 0.39323 0.511196 0.490774 0.242928 0.589943 
0.63094 0.526337 0.508529 0.558871 0.030988 0.304428 0.554256 0.0406632 0.396587 
0.677535 0.379073 0.653353 0.829009 0.129547 0.925454 0.710305 0.378801 0.4676 
0.960393 0.0441046 0.859234 0.489417 0.241356 0.399921 0.790031 0.0604078 0.678298 
0.691344 0.469916 0.729855 0.703974 0.283303 0.432656 0.624767 0.105631 0.71055 
0.913861 0.453275 0.656839 0.59864 0.188837 0.827137 0.299634 0.098964 0.810432 
0.598509 0.346154 0.696692 0.713922 0.268273 0.695013 0.77446 0.117405 0.528495 
0.622645 0.385176 0.769053 0.707728 0.291143 0.67081 0.838783 0.376425 0.598785 
0.675221 0.497335 0.527369 0.947757 0.266762 0.642884 0.594006 0.0272498 0.0901919 
0.732779 0.537281 0.342297 0.733622 0.211269 0.495267 0.406334 0.324623 0.799272 
0.457767 0.128852 0.264387 0.981703 0.0669534 0.282447 0.682578 0.039365 0.758851 
0.379411 0.0214285 0.345667 0.663367 0.178725 0.659474 0.512261 0.0918533 0.547074 
0.645426 0.139774 0.91668 0.82255 0.480248 0.457602 0.521872 0.115691 0.0700846 
0.722281 0.267938 0.0852853 0.626582 0.460171 0.566945 0.846692 0.263425 0.130498 
0.903041 0.157105 0.868758 0.909072 0.0505117 0.739381 0.673077 0.146473 0.564644 
0.704392 0.167224 0.360872 0.400331 0.0250372 0.110515 0.534158 0.364544 0.265621 
0.593211 0.154325 0.0232532 0.745107 0.518288 0.536824 0.487941 0.162169 0.155316 
0.585445 0.34829 0.186313 0.842661 0.365849 0.512083 0.48998 0.437306 0.562952 
0.68431 0.323103 0.317673 0.617422 0.357777 0.616666 0.666866 0.233693 0.844892 
0.439624 0.194902 0.871762 0.66188 0.0515835 0.978945 0.374305 0.301217 0.279481 
0.551246 0.0054462 0.831886 0.841687 0.12906 0.258355 0.585428 0.382116 0.395253 
0.435333 0.0427515 0.39815 0.991237 0.462304 0.492709 0.756981 0.260745 0.773359 
0.285993 0.0648236 0.377412 0.948305 0.171684 0.277407 0.569254 0.121251 0.0876795 
0.898504 0.0920209 0.290826 0.345868 0.328188 0.283299 0.688785 0.406825 0.724904 
0.579398 0.250204 0.102712 0.775284 0.51693 0.36231 0.879422 0.418368 0.755677 
[...]
CELL_DATA 250
FIELD FieldData 2
ReasonForTermination 1 250 int
6 6 6 6 6 6 6 4 6 
6 6 6 6 6 6 6 6 6 
6 6 6 6 6 6 6 6 6 
6 6 6 6 6 6 6 6 6 
6 6 6 6 6 6 6 6 6 
6 6 6 4 6 6 6 6 6 
6 6 6 6 6 6 6 6 6 
6 6 6 6 6 6 6 6 6 
6 6 6 6 6 6 6 6 6 
6 5 6 6 6 6 6 6 6 
6 6 6 6 6 6 6 6 6 
6 6 6 4 6 6 6 6 6 
6 6 6 6 6 6 6 6 6 
6 6 6 6 6 6 6 6 6 
6 6 6 6 6 6 6 6 6 
6 6 6 6 6 6 6 6 6 
6 6 6 6 6 6 6 6 6 
6 6 6 6 6 6 6 6 6 
6 6 6 6 6 6 6 6 6 
6 6 6 6 6 6 6 6 6 
6 6 6 6 6 6 6 6 6 
6 6 6 6 6 6 6 6 6 
6 6 6 6 6 6 6 6 6 
6 6 6 6 6 6 6 6 6 
6 6 6 6 6 6 6 6 6 
6 6 6 6 6 6 6 6 6 
6 6 6 6 6 6 6 6 6 
6 6 6 6 6 6 6 
METADATA
INFORMATION 0

SeedIds 1 250 int
296 511 1280 1317 1326 1481 2166 2373 2748 
3683 4072 4411 4438 4607 5554 5971 6028 6047 
6327 6372 6457 6680 7756 8623 8936 9300 9864 
9978 10159 11314 11344 11438 11780 12253 13274 13707 
14333 14401 14665 14782 14836 15211 15637 16109 16753 
16775 16942 16947 17651 18120 18962 19139 19987 20523 
20921 20927 21134 21227 21468 21785 22155 22202 23077 
23442 23765 23875 24436 24635 25013 25159 26431 27237 
27618 27746 28200 29541 29565 30381 30815 31854 32896 
33152 33755 34595 35043 35073 35074 35430 35470 35485 
36767 36862 36925 37069 37111 37348 38113 38129 38584 
38873 38999 39325 39794 39859 40052 40111 40702 40778 
41741 42112 42307 42687 43577 43800 44074 44430 44600 
44723 45955 46218 46286 47615 48413 49556 49878 296 
511 1280 1317 1326 1481 2166 2373 2748 3683 
4072 4411 4438 4607 5554 5971 6028 6047 6327 
6372 6457 6680 7756 8623 8936 9300 9864 9978 
10159 11314 11344 11438 11780 12253 13274 13707 14333 
14401 14665 14782 14836 15211 15637 16109 16753 16775 
16942 16947 17651 18120 18962 19139 19987 20523 20921 
20927 21134 21227 21468 21785 22155 22202 23077 23442 
23765 23875 24436 24635 25013 25159 26431 27237 27618 
27746 28200 29541 29565 30381 30815 31854 32896 33152 
33755 34595 35043 35073 35074 35430 35470 35485 36767 
36862 36925 37069 37111 37348 38113 38129 38584 38873 
38999 39325 39794 39859 40052 40111 40702 40778 41741 
42112 42307 42687 43577 43800 44074 44430 44600 44723 
45955 46218 46286 47615 48413 49556 49878 
METADATA
INFORMATION 0

POINT_DATA 62042
VECTORS Normals double
1 0 0 1 0 0 1 0 0 
1 0 0 1 0 0 1 0 0 
1 0 0 1 0 0 1 0 0 
1 0 0 1 0 0 1 0 0 
1 0 0 1 0 0 1 0 0 
1 0 0 1 0 0 1 0 0 
1 0 0 1 0 0 1 0 0 
1 0 0 1 0 0 1 0 0 
1 0 0 1 0 0 1 0 0 
1 0 0 1 0 0 1 0 0 
1 0 0 1 0 0 1 0 0 
1 0 0 1 0 0 1 0 0 
1 0 0 1 0 0 1 0 0 
1 0 0 1 0 0 1 0 0 
1 0 0 1 0 0 1 0 0 
1 0 0 1 0 0 1 0 0 
1 0 0 1 0 0 1 0 0 
1 0 0 1 0 0 1 0 0 
1 0 0 1 0 0 1 0 0 
1 0 0 1 0 0 1 0 0 
1 0 0 1 0 0 1 0 0 
1 0 0 1 0 0 1 0 0 
1 0 0 1 0 0 1 0 0 
1 0 0 1 0 0 1 0 0 
1 0 0 1 0 0 1 0 0 
1 0 0 1 0 0 1 0 0 
1 0 0 1 0 0 1 0 0 
1 0 0 1 0 0 1 0 0 
1 0 0 1 0 0 1 0 0 
1 0 0 1 0 0 1 0 0 
1 0 0 1 0 0 1 0 0 
1 0 0 1 0 0 1 0 0 
1 0 0 1 0 0 1 0 0 
1 0 0 1 0 0 1 0 0 
1 0 0 1 0 0 1 0 0 
1 0 0 1 0 0 1 0 0 
1 0 0 1 0 0 1 0 0 
1 0 0 1 0 0 1 0 0 
1 0 0 1 0 0 1 0 0 
1 0 0 1 0 0 1 0 0 
1 0 0 1 0 0 1 0 0 
1 0 0 1 0 0 1 0 0 
1 0 0 1 0 0 1 0 0 
1 0 0 1 0 0 1 0 0 
1 0 0 1 0 0 1 0 0 
1 0 0 1 0 0 1 0 0 
1 0 0 1 0 0 1 0 0 
1 0 0 1 0 0 1 0 0 
1 0 0 1 0 0 1 0 0 
1 0 0 1 0 0 1 0 0 
1 0 0 1 0 0 1 0 0 
1 0 0 1 0 0 -0.0014626923338 -0.00079027638736 -0.999998618 
-0.0014358950999 -0.00078018533834 -0.99999866476 -0.016030226572 -0.0023677176033 -0.99986870426 -0.033512670805 -0.0086723283535 -0.99940066621 
-0.04155944558 -0.010523486974 -0.99908061172 -0.041718587614 -0.002765258295 -0.99912557409 -0.041718587585 -0.041556983652 -0.99826478279 
-0.041718558997 -0.73393882548 -0.67793315473 -0.041718558997 -0.73393882548 -0.67793315473 -0.041718558997 -0.73393882548 -0.67793315473 
-0.041718558997 -0.73393882548 -0.67793315473 -0.041718558997 -0.73393882548 -0.67793315473 -0.041718558997 -0.73393882548 -0.67793315473 
-0.041718558997 -0.73393882548 -0.67793315473 -0.041718558997 -0.73393882548 -0.67793315473 -0.041718558997 -0.73393882548 -0.67793315473 
-0.041718558997 -0.73393882548 -0.67793315473 -0.041718558997 -0.73393882548 -0.67793315473 -0.041718558997 -0.73393882548 -0.67793315473 
-0.041718558997 -0.73393882548 -0.67793315473 -0.041718558997 -0.73393882548 -0.67793315473 -0.041718558997 -0.73393882548 -0.67793315473 
-0.041718558997 -0.73393882548 -0.67793315473 -0.041718558997 -0.73393882548 -0.67793315473 -0.041718558997 -0.73393882548 -0.67793315473 
-0.041718558997 -0.73393882548 -0.67793315473 -0.041718558997 -0.73393882548 -0.67793315473 -0.041718558997 -0.73393882548 -0.67793315473 
-0.041718558997 -0.73393882548 -0.67793315473 -0.041718558997 -0.73393882548 -0.67793315473 -0.041718558997 -0.73393882548 -0.67793315473 
-0.041718558997 -0.73393882548 -0.67793315473 -0.041718558997 -0.73393882548 -0.67793315473 -0.041718558997 -0.73393882548 -0.67793315473 
-0.041718558997 -0.73393882548 -0.67793315473 -0.041718558997 -0.73393882548 -0.67793315473 -0.041718558997 -0.73393882548 -0.67793315473 
-0.041718558997 -0.73393882548 -0.67793315473 -0.041718558997 -0.73393882548 -0.67793315473 -0.041718558997 -0.73393882548 -0.67793315473 
-0.041718558997 -0.73393882548 -0.67793315473 -0.041718558997 -0.73393882548 -0.67793315473 -0.041718558997 -0.73393882548 -0.67793315473 
-0.041718558997 -0.73393882548 -0.67793315473 -0.041718558997 -0.73393882548 -0.67793315473 -0.041718558997 -0.73393882548 -0.67793315473 
-0.041718558997 -0.73393882548 -0.67793315473 -0.041718558997 -0.73393882548 -0.67793315473 -0.041718558997 -0.73393882548 -0.67793315473 
-0.041718558997 -0.73393882548 -0.67793315473 -0.041718558997 -0.73393882548 -0.67793315473 -0.041718558997 -0.73393882548 -0.67793315473 
-0.041718558997 -0.73393882548 -0.67793315473 -0.041718558997 -0.73393882548 -0.67793315473 -0.041718558997 -0.73393882548 -0.67793315473 
-0.041718558997 -0.73393882548 -0.67793315473 -0.041718558997 -0.73393882548 -0.67793315473 -0.041718558997 -0.73393882548 -0.67793315473 
-0.041718558997 -0.73393882548 -0.67793315473 -0.041718558997 -0.73393882548 -0.67793315473 -0.041718558997 -0.73393882548 -0.67793315473 
-0.041718558997 -0.73393882548 -0.67793315473 -0.041718558997 -0.73393882548 -0.67793315473 -0.041718558997 -0.73393882548 -0.67793315473 
-0.041718558997 -0.73393882548 -0.67793315473 -0.041718558997 -0.73393882548 -0.67793315473 -0.041718558997 -0.73393882548 -0.67793315473 
-0.041718558997 -0.73393882548 -0.67793315473 -0.041718558997 -0.73393882548 -0.67793315473 -0.041718558997 -0.73393882548 -0.67793315473 
-0.041718558997 -0.73393882548 -0.67793315473 -0.041718558997 -0.73393882548 -0.67793315473 -0.041718558997 -0.73393882548 -0.67793315473 
-0.041718558997 -0.73393882548 -0.67793315473 -0.041718558997 -0.73393882548 -0.67793315473 -0.041718558997 -0.73393882548 -0.67793315473 
-0.041718558997 -0.73393882548 -0.67793315473 -0.041718558997 -0.73393882548 -0.67793315473 -0.041718558997 -0.73393882548 -0.67793315473 
-0.041718558997 -0.73393882548 -0.67793315473 -0.041718558997 -0.73393882548 -0.67793315473 -0.041718558997 -0.73393882548 -0.67793315473 
-0.041718558997 -0.73393882548 -0.67793315473 -0.041718558997 -0.73393882548 -0.67793315473 -0.041718558997 -0.73393882548 -0.67793315473 
-0.041718558997 -0.73393882548 -0.67793315473 -0.041718558997 -0.73393882548 -0.67793315473 -0.041718558997 -0.73393882548 -0.67793315473 
-0.041718558997 -0.73393882548 -0.67793315473 -0.041718558997 -0.73393882548 -0.67793315473 -0.041718558997 -0.73393882548 -0.67793315473 
-0.041718558997 -0.73393882548 -0.67793315473 -0.041718558997 -0.73393882548 -0.67793315473 -0.041718558997 -0.73393882548 -0.67793315473 
-0.041718558997 -0.73393882548 -0.67793315473 -0.041718558997 -0.73393882548 -0.67793315473 -0.041718558997 -0.73393882548 -0.67793315473 
-0.041718558997 -0.73393882548 -0.67793315473 -0.041718558997 -0.73393882548 -0.67793315473 -0.041718558997 -0.73393882548 -0.67793315473 
-0.041718558997 -0.73393882548 -0.67793315473 -0.041718558997 -0.73393882548 -0.67793315473 -0.041718558997 -0.73393882548 -0.67793315473 
-0.041718558997 -0.73393882548 -0.67793315473 -0.041718558997 -0.73393882548 -0.67793315473 -0.041718558997 -0.73393882548 -0.67793315473 
-0.041718558997 -0.73393882548 -0.67793315473 -0.041718558997 -0.73393882548 -0.67793315473 nan nan nan 
1 0 0 1 0 0 1 0 0 
1 0 0 1 0 0 1 0 0 
1 0 0 1 0 0 1 0 0 
1 0 0 1 0 0 1 0 0 
1 0 0 1 0 0 1 0 0 
1 0 0 1 0 0 1 0 0 
1 0 0 1 0 0 1 0 0 
1 0 0 1 0 0 1 0 0 
1 0 0 1 0 0 1 0 0 
1 0 0 1 0 0 1 0 0 
1 0 0 1 0 0 1 0 0 
1 0 0 1 0 0 1 0 0 
1 0 0 1 0 0 1 0 0 
1 0 0 1 0 0 1 0 0 
1 0 0 1 0 0 1 0 0 
1 0 0 1 0 0 1 0 0 
1 0 0 1 0 0 1 0 0 
1 0 0 1 0 0 1 0 0 
1 0 0 1 0 0 1 0 0 
1 0 0 1 0 0 1 0 0 
1 0 0 1 0 0 1 0 0 
1 0 0 1 0 0 1 0 0 
1 0 0 1 0 0 1 0 0 
1 0 0 1 0 0 1 0 0 
1 0 0 1 0 0 1 0 0 
1 0 0 1 0 0 1 0 0 
1 0 0 1 0 0 1 0 0 
1 0 0 1 0 0 1 0 0 
1 0 0 1 0 0 1 0 0 
1 0 0 1 0 0 1 0 0 
1 0 0 1 0 0 1 0 0 
1 0 0 1 0 0 1 0 0 
1 0 0 1 0 0 1 0 0 
1 0 0 1 0 0 1 0 0 
1 0 0 1 0 0 1 0 0 
1 0 0 1 0 0 1 0 0 
1 0 0 1 0 0 1 0 0 
1 0 0 1 0 0 1 0 0 
1 0 0 0.0014690811181 0.00085511439438 -0.99999855529 0.0016477836614 0.0010682867486 -0.99999807178 
0.002400103642 0.0015708415835 -0.99999588597 0.0033950562624 0.002058135484 -0.9999921188 0.0043272717495 0.0024411859198 -0.99998765759 
0.017611063226 0.021992978133 -0.99960300088 0.041471751668 0.049092388809 -0.99793287909 0.064880158547 0.051587426337 -0.99655873007 
0.069159348368 0.045463557678 -0.99656913933 0.064102341117 0.023381467185 -0.99766938254 0.056918223583 0.025500124891 -0.99805313458 
0.0092461012229 0.0026405850238 -0.99995376739 -0.056535673666 -0.016564465883 -0.99826315973 -0.1358297036 -0.043857327295 -0.98976099462 
-0.19522915379 -0.1066191851 -0.97494508916 -0.19977746265 -0.13788633441 -0.97009088451 -0.21525266379 -0.12145596413 -0.96897612948 
-0.21617476313 -0.12586229377 -0.96820821872 -0.2232142521 -0.11756492909 -0.96765380437 -0.2158725324 -0.13208681923 -0.96744618555 
-0.20359050273 -0.14774632831 -0.96784395936 -0.22081936717 -0.14250415563 -0.96484784951 -0.21124746709 -0.17252850268 -0.96208545536 
-0.20020606695 -0.18371826804 -0.96237473405 -0.20078372027 -0.18294341663 -0.96240199708 -0.19869192886 -0.18514032274 -0.96241601104 
-0.19781713011 -0.1860471857 -0.96242133586 nan nan nan 1 0 0 
1 0 0 1 0 0 1 0 0 
1 0 0 1 0 0 1 0 0 
1 0 0 1 0 0 1 0 0 
1 0 0 1 0 0 1 0 0 
1 0 0 1 0 0 1 0 0 
1 0 0 1 0 0 1 0 0 
1 0 0 1 0 0 1 0 0 
1 0 0 1 0 0 1 0 0 
1 0 0 1 0 0 1 0 0 
1 0 0 1 0 0 1 0 0 
1 0 0 1 0 0 1 0 0 
1 0 0 1 0 0 1 0 0 
1 0 0 1 0 0 1 0 0 
1 0 0 1 0 0 1 0 0 
1 0 0 1 0 0 1 0 0 
1 0 0 1 0 0 1 0 0 
1 0 0 1 0 0 1 0 0 
1 0 0 1 0 0 1 0 0 
1 0 0 1 0 0 1 0 0 
1 0 0 1 0 0 1 0 0 
1 0 0 1 0 0 1 0 0 
1 0 0 1 0 0 1 0 0 
1 0 0 1 0 0 1 0 0 
1 0 0 1 0 0 1 0 0 
1 0 0 1 0 0 1 0 0 
1 0 0 1 0 0 1 0 0 
1 0 0 1 0 0 1 0 0 
1 0 0 1 0 0 1 0 0 
1 0 0 1 0 0 1 0 0 
1 0 0 1 0 0 1 0 0 
1 0 0 1 0 0 1 0 0 
1 0 0 1 0 0 1 0 0 
1 0 0 1 0 0 1 0 0 
1 0 0 1 0 0 1 0 0 
1 0 0 1 0 0 1 0 0 
1 0 0 1 0 0 1 0 0 
1 0 0 1 0 0 1 0 0 
1 0 0 1 0 0 1 0 0 
1 0 0 1 0 0 1 0 0 
1 0 0 1 0 0 1 0 0 
1 0 0 1 0 0 1 0 0 
1 0 0 1 0 0 1 0 0 
1 0 0 1 0 0 1 0 0 
1 0 0 1 0 0 1 0 0 
1 0 0 1 0 0 1 0 0 
1 0 0 1 0 0 1 0 0 
1 0 0 1 0 0 1 0 0 
1 0 0 1 0 0 1 0 0 
1 0 0 1 0 0 1 0 0 
1 0 0 1 0 0 1 0 0 
1 0 0 1 0 0 1 0 0 
1 0 0 1 0 0 1 0 0 
1 0 0 1 0 0 1 0 0 
1 0 0 1 0 0 1 0 0 
1 0 0 1 0 0 1 0 0 
1 0 0 1 0 0 1 0 0 
1 0 0 1 0 0 1 0 0 
1 0 0 1 0 0 1 0 0 
1 0 0 1 0 0 1 0 0 
1 0 0 1 0 0 1 0 0 
1 0 0 1 0 0 1 0 0 
1 0 0 1 0 0 1 0 0 
1 0 0 1 0 0 1 0 0 
1 0 0 1 0 0 1 0 0 
1 0 0 1 0 0 1 0 0 
1 0 0 1 0 0 1 0 0 
1 0 0 1 0 0 1 0 0 
1 0 0 1 0 0 1 0 0 
1 0 0 1 0 0 1 0 0 
1 0 0 1 0 0 1 0 0 
1 0 0 1 0 0 1 0 0 
1 0 0 1 0 0 1 0 0 
1 0 0 1 0 0 1 0 0 
1 0 0 1 0 0 1 0 0 
1 0 0 1 0 0 1 0 0 
1 0 0 1 0 0 1 0 0 
1 0 0 1 0 0 1 0 0 
1 0 0 1 0 0 1 0 0 
1 0 0 1 0 0 1 0 0 
1 0 0 1 0 0 1 0 0 
1 0 0 1 0 0 1 0 0 
1 0 0 1 0 0 1 0 0 
1 0 0 1 0 0 1 0 0 
1 0 0 1 0 0 1 0 0 
1 0 0 1 0 0 1 0 0 
1 0 0 1 0 0 1 0 0 
1 0 0 1 0 0 1 0 0 
1 0 0 1 0 0 1 0 0 
1 0 0 1 0 0 1 0 0 
1 0 0 1 0 0 1 0 0 
1 0 0 1 0 0 1 0 0 
1 0 0 1 0 0 1 0 0 
1 0 0 1 0 0 1 0 0 
1 0 0 1 0 0 1 0 0 
1 0 0 1 0 0 1 0 0 
1 0 0 1 0 0 1 0 0 
1 0 0 1 0 0 1 0 0 
1 0 0 1 0 0 1 0 0 
1 0 0 1 0 0 1 0 0 
1 0 0 1 0 0 1 0 0 
1 0 0 1 0 0 1 0 0 
1 0 0 1 0 0 1 0 0 
1 0 0 1 0 0 1 0 0 
1 0 0 1 0 0 1 0 0 
1 0 0 1 0 0 1 0 0 
1 0 0 1 0 0 1 0 0 
1 0 0 1 0 0 1 0 0 
1 0 0 1 0 0 1 0 0 
1 0 0 1 0 0 1 0 0 
1 0 0 1 0 0 1 0 0 
1 0 0 1 0 0 1 0 0 
1 0 0 1 0 0 1 0 0 
1 0 0 1 0 0 1 0 0 
1 0 0 1 0 0 1 0 0 
1 0 0 1 0 0 1 0 0 
1 0 0 1 0 0 1 0 0 
1 0 0 1 0 0 1 0 0 
1 0 0 1 0 0 1 0 0 
1 0 0 1 0 0 1 0 0 
1 0 0 1 0 0 1 0 0 
1 0 0 1 0 0 1 0 0 
1 0 0 1 0 0 1 0 0 
1 0 0 1 0 0 1 0 0 
1 0 0 1 0 0 1 0 0 
1 0 0 1 0 0 1 0 0 
1 0 0 1 0 0 1 0 0 
1 0 0 1 0 0 1 0 0 
1 0 0 1 0 0 1 0 0 
1 0 0 1 0 0 1 0 0 
1 0 0 1 0 0 1 0 0 
1 0 0 1 0 0 1 0 0 
1 0 0 1 0 0 1 0 0 
1 0 0 1 0 0 1 0 0 
1 0 0 1 0 0 1 0 0 
1 0 0 1 0 0 1 0 0 
1 0 0 1 0 0 1 0 0 
1 0 0 1 0 0 1 0 0 
1 0 0 1 0 0 1 0 0 
1 0 0 1 0 0 1 0 0 
1 0 0 1 0 0 1 0 0 
1 0 0 1 0 0 1 0 0 
1 0 0 1 0 0 1 0 0 
1 0 0 1 0 0 1 0 0 
-0.0053544412421 0.0050929650636 0.99997269546 -0.021025830087 0.0054561170564 0.99976404479 -0.031525117823 0.0047794970247 0.99949153241 
-0.052424042982 0.0170703667 0.99847900444 -0.057419099449 0.013937085846 0.99825287611 -0.050946385296 0.005938598486 0.99868373316 
-0.035378678395 0.01376684141 0.99927915179 -0.0082756470098 0.0037654655796 0.99995866661 0.018774216362 -0.0063327015389 0.99980369358 
0.043611638931 -0.008213267536 0.99901479828 0.051189105164 0.01173284111 0.99862005585 0.042970128989 0.030510143406 0.99861038407 
0.040073883106 0.038591110402 0.99845120566 0.031965772509 0.041611800232 0.99862237481 0.0068244452688 0.04548669059 0.99894163389 
0.027841680094 0.035801866765 0.99897100418 0.03470465938 0.025462340642 0.99907319843 0.030700152326 0.012873292255 0.99944573589 
0.01950719475 0.0057851322934 0.99979297937 0.027927660706 0.013434326199 0.99951966696 0.036099018133 0.01971598345 0.99915371234 
0.034696178067 0.0314489213 0.99890296855 -0.0422415306 0.21273583459 0.97619624962 -0.31351842047 0.77409109704 0.54999015765 
-0.31351842047 0.77409109704 0.54999015765 -0.31351842047 0.77409109704 0.54999015765 -0.31351842047 0.77409109704 0.54999015765 
-0.31351842047 0.77409109704 0.54999015765 -0.31351842047 0.77409109704 0.54999015765 -0.31351842047 0.77409109704 0.54999015765 
-0.31351842047 0.77409109704 0.54999015765 -0.31351842047 0.77409109704 0.54999015765 -0.31351842047 0.77409109704 0.54999015765 
-0.31351842047 0.77409109704 0.54999015765 -0.31351842047 0.77409109704 0.54999015765 -0.31351842047 0.77409109704 0.54999015765 
-0.31351842047 0.77409109704 0.54999015765 -0.31351842047 0.77409109704 0.54999015765 -0.31351842047 0.77409109704 0.54999015765 
-0.31351842047 0.77409109704 0.54999015765 -0.31351842047 0.77409109704 0.54999015765 -0.31351842047 0.77409109704 0.54999015765 
-0.31351842047 0.77409109704 0.54999015765 -0.31351842047 0.77409109704 0.54999015765 -0.31351842047 0.77409109704 0.54999015765 
-0.31351842047 0.77409109704 0.54999015765 -0.31351842047 0.77409109704 0.54999015765 -0.31351842047 0.77409109704 0.54999015765 
-0.31351842047 0.77409109704 0.54999015765 -0.31351842047 0.77409109704 0.54999015765 -0.31351842047 0.77409109704 0.54999015765 
-0.31351842047 0.77409109704 0.54999015765 -0.31351842047 0.77409109704 0.54999015765 -0.31351842047 0.77409109704 0.54999015765 
-0.31351842047 0.77409109704 0.54999015765 -0.31351842047 0.77409109704 0.54999015765 -0.31351842047 0.77409109704 0.54999015765 
-0.31351842047 0.77409109704 0.54999015765 -0.31351842047 0.77409109704 0.54999015765 -0.31351842047 0.77409109704 0.54999015765 
-0.31351842047 0.77409109704 0.54999015765 -0.31351842047 0.77409109704 0.54999015765 -0.31351842047 0.77409109704 0.54999015765 
-0.31351842047 0.77409109704 0.54999015765 -0.31351842047 0.77409109704 0.54999015765 -0.31351842047 0.77409109704 0.54999015765 
-0.31351842047 0.77409109704 0.54999015765 -0.31351842047 0.77409109704 0.54999015765 -0.31351842047 0.77409109704 0.54999015765 
-0.31351842047 0.77409109704 0.54999015765 -0.31351842047 0.77409109704 0.54999015765 -0.31351842047 0.77409109704 0.54999015765 
-0.31351842047 0.77409109704 0.54999015765 -0.31351842047 0.77409109704 0.54999015765 -0.31351842047 0.77409109704 0.54999015765 
-0.31351842047 0.77409109704 0.54999015765 -0.31351842047 0.77409109704 0.54999015765 -0.31351842047 0.77409109704 0.54999015765 
-0.31351842047 0.77409109704 0.54999015765 -0.31351842047 0.77409109704 0.54999015765 -0.31351842047 0.77409109704 0.54999015765 
-0.31351842047 0.77409109704 0.54999015765 -0.31351842047 0.77409109704 0.54999015765 -0.31351842047 0.77409109704 0.54999015765 
-0.31351842047 0.77409109704 0.54999015765 -0.31351842047 0.77409109704 0.54999015765 -0.31351842047 0.77409109704 0.54999015765 
-0.31351842047 0.77409109704 0.54999015765 -0.31351842047 0.77409109704 0.54999015765 -0.31351842047 0.77409109704 0.54999015765 
-0.31351842047 0.77409109704 0.54999015765 -0.31351842047 0.77409109704 0.54999015765 -0.31351842047 0.77409109704 0.54999015765 
-0.31351842047 0.77409109704 0.54999015765 -0.31351842047 0.77409109704 0.54999015765 -0.31351842047 0.77409109704 0.54999015765 
-0.31351842047 0.77409109704 0.54999015765 -0.31351842047 0.77409109704 0.54999015765 -0.31351842047 0.77409109704 0.54999015765 
-0.31351842047 0.77409109704 0.54999015765 -0.31351842047 0.77409109704 0.54999015765 -0.31351842047 0.77409109704 0.54999015765 
-0.31351842047 0.77409109704 0.54999015765 -0.31351842047 0.77409109704 0.54999015765 -0.31351842047 0.77409109704 0.54999015765 
-0.31351842047 0.77409109704 0.54999015765 -0.31351842047 0.77409109704 0.54999015765 -0.31351842047 0.77409109704 0.54999015765 
-0.31351842047 0.77409109704 0.54999015765 -0.31351842047 0.77409109704 0.54999015765 -0.31351842047 0.77409109704 0.54999015765 
-0.31351842047 0.77409109704 0.54999015765 -0.31351842047 0.77409109704 0.54999015765 -0.31351842047 0.77409109704 0.54999015765 
-0.31351842047 0.77409109704 0.54999015765 -0.31351842047 0.77409109704 0.54999015765 -0.31351842047 0.77409109704 0.54999015765 
-0.31351842047 0.77409109704 0.54999015765 -0.31351842047 0.77409109704 0.54999015765 -0.31351842047 0.77409109704 0.54999015765 
-0.31351842047 0.77409109704 0.54999015765 -0.31351842047 0.77409109704 0.54999015765 -0.31351842047 0.77409109704 0.54999015765 
-0.31351842047 0.77409109704 0.54999015765 -0.31351842047 0.77409109704 0.54999015765 -0.31351842047 0.77409109704 0.54999015765 
-0.31351842047 0.77409109704 0.54999015765 -0.31351842047 0.77409109704 0.54999015765 -0.31351842047 0.77409109704 0.54999015765 
-0.31351842047 0.77409109704 0.54999015765 -0.31351842047 0.77409109704 0.54999015765 -0.31351842047 0.77409109704 0.54999015765 
-0.31351842047 0.77409109704 0.54999015765 -0.31351842047 0.77409109704 0.54999015765 -0.31351842047 0.77409109704 0.54999015765 
-0.31351842047 0.77409109704 0.54999015765 -0.31351842047 0.77409109704 0.54999015765 -0.31351842047 0.77409109704 0.54999015765 
-0.31351842047 0.77409109704 0.54999015765 -0.31351842047 0.77409109704 0.54999015765 -0.31351842047 0.77409109704 0.54999015765 
-0.31351842047 0.77409109704 0.54999015765 -0.31351842047 0.77409109704 0.54999015765 -0.31351842047 0.77409109704 0.54999015765 
-0.31351842047 0.77409109704 0.54999015765 -0.31351842047 0.77409109704 0.54999015765 -0.31351842047 0.77409109704 0.54999015765 
-0.31351842047 0.77409109704 0.54999015765 -0.31351842047 0.77409109704 0.54999015765 -0.31351842047 0.77409109704 0.54999015765 
-0.31351842047 0.77409109704 0.54999015765 -0.31351842047 0.77409109704 0.54999015765 -0.31351842047 0.77409109704 0.54999015765 
-0.31351842047 0.77409109704 0.54999015765 -0.31351842047 0.77409109704 0.54999015765 -0.31351842047 0.77409109704 0.54999015765 
-0.31351842047 0.77409109704 0.54999015765 -0.31351842047 0.77409109704 0.54999015765 -0.31351842047 0.77409109704 0.54999015765 
-0.31351842047 0.77409109704 0.54999015765 -0.31351842047 0.77409109704 0.54999015765 -0.31351842047 0.77409109704 0.54999015765 