# vtk DataFile Version 4.2
vtk output
ASCII
DATASET POLYDATA
POINTS 14181 float
0.823559 0.105506 0.561899 0.39 0.689664 0.592892 0.334103 0.738 0.735747 
0.398751 0.676 0.553876 0.401888 0.538824 0.270025 0.268816 0.86876 0.472669 
0.417252 0.633843 0.404574 0.469152 0.443563 0.350031 0.294507 0.844557 0.269262 
0.351956 0.72527 0.477323 0.528121 0.471835 0.125577 0.514256 0.409701 0.350195 
0.481951 0.27 0.00335094 0.402214 0.538952 0.270884 0.49023 0.407311 0.363521 
0.370599 0.660461 0.434287 0.237967 0.934195 0.668115 0.286099 0.841874 0.617498 
0.579979 0.336934 0.121725 0.453628 0.401854 0.527368 0.56 0.311418 0.714938 
0.468651 0.387439 0.374025 0.942 0.070949 0.528362 0.394013 0.455775 0.21517 
0.581396 0.356841 0.217035 0.545935 0.373824 0.324046 0.547952 0.233933 0.0660882 
0.353181 0.66836 0.757469 0.489276 0.449134 0.291229 0.32006 0.687507 0.407164 
0.363037 0.669753 0.451655 0.456454 0.393651 0.356551 0.356208 0.578 0.220302 
0.393269 0.632496 0.555626 0.586 0.281462 0.741918 0.318618 0.631073 0.0964191 
0.702621 0.0328121 0.260186 0.422415 0.505078 0.667764 0.562481 0.272327 0.155223 
0.369347 0.694234 0.4758 0.49 0.478823 0.410345 0.890928 0.163597 0.523753 
0.441878 0.545681 0.379382 0.461831 0.303587 0.0588319 0.290532 0.792194 0.381128 
0.551339 0.278 0.137832 0.39547 0.631691 0.627829 0.448428 0.450574 0.357546 
0.509628 0.26899 0.181559 0.68912 0.058 0.31761 0.44474 0.476725 0.503646 
0.956044 0.218277 0.699886 0.410602 0.562711 0.515408 0.602643 0.28371 0.296881 
0.514654 0.400195 0.356267 0.31088 0.777039 0.399196 0.452 0.541336 0.612398 
0.428584 0.602361 0.602656 0.337427 0.706957 0.713535 0.469943 0.499968 0.572164 
0.361809 0.711685 0.439381 0.221476 0.802 0.56912 0.824034 0.10599 0.602848 
0.887564 0.150828 0.408924 0.198391 0.830954 0.16332 0.891447 0.161533 0.501919 
0.309183 0.816878 0.586423 0.38425 0.653916 0.474373 0.234653 0.887872 0.615397 
0.414298 0.631805 0.639779 0.277379 0.703382 0.050987 0.514 0.334278 0.15471 
0.312538 0.760711 0.394788 0.479163 0.46 0.692844 0.43 0.654239 0.420528 
0.889555 0.167867 0.568112 0.278895 0.719177 0.563439 0.434744 0.389084 0.138809 
0.547758 0.306163 0.253143 0.369395 0.508104 0.529015 0.336273 0.691499 0.420498 
0.487793 0.358 0.255152 0.520967 0.333254 0.210737 0.421775 0.553052 0.544313 
0.778467 0.158119 0.286441 0.39884 0.616824 0.565896 0.341825 0.695194 0.689301 
0.720492 0.107634 0.666184 0.271739 0.722 0.461815 0.318449 0.670786 0.400017 
0.404774 0.560775 0.766074 0.358499 0.658001 0.916612 0.409047 0.411489 0.111236 
0.395994 0.693051 0.317334 0.563296 0.359867 0.265579 0.421371 0.513359 0.4467 
0.728667 0.0586146 0.601007 0.404371 0.635481 0.37484 0.360912 0.490359 0.0365848 
0.416338 0.656908 0.43212 0.372285 0.438 0.00868827 0.443744 0.578228 0.556297 
0.450839 0.629497 0.060309 0.398001 0.471706 0.266222 0.382 0.486823 0.573856 
0.439926 0.524405 0.522455 0.421755 0.519336 0.477371 0.210461 0.807289 0.178028 
0.444847 0.53166 0.656014 0.830689 0.110764 0.741324 0.31425 0.685083 0.417486 
0.370477 0.661825 0.477275 0.231337 0.816021 0.645831 0.325882 0.623904 0.187516 
0.830568 0.110721 0.73896 0.298759 0.701544 0.580594 0.399371 0.646941 0.50898 
0.506603 0.510193 0.119117 0.3998 0.445911 0.195303 0.32869 0.738862 0.664753 
0.421513 0.672 0.492499 0.477053 0.282 0.195018 0.532585 0.334 0.706054 
0.409726 0.453074 0.398324 0.905791 0.0629229 0.474458 0.792142 0.168 0.526214 
0.385394 0.709998 0.159062 0.474348 0.383582 0.396309 0.517878 0.407083 0.340596 
0.226668 0.853407 0.519793 0.396358 0.585988 0.429351 0.566444 0.351617 0.151373 
0.402329 0.58839 0.547515 0.505532 0.422894 0.343066 0.373734 0.595749 0.637957 
0.5003 0.463693 0.379229 0.295094 0.79851 0.617489 0.784 0.113967 0.794501 
0.434454 0.386644 0.0774279 0.394822 0.684986 0.398784 0.807849 0.0820461 0.786036 
0.398657 0.586004 0.585768 0.749463 0.113871 0.724975 0.290654 0.659064 0.193944 
0.822771 0.105195 0.561659 0.289443 0.700097 0.389965 0.626946 0.219137 0.275771 
0.347 0.699242 0.680298 0.375682 0.680979 0.494755 0.43 0.650221 0.424263 
0.501271 0.482551 0.329686 0.337657 0.716643 0.496857 0.44787 0.541732 0.655484 
0.370618 0.650919 0.350827 0.330138 0.679288 0.497258 0.620506 0.212298 0.377413 
0.363361 0.66705 0.518139 0.801764 0.120489 0.82506 0.439957 0.399949 0.290421 
0.347983 0.735333 0.500396 0.204872 0.888 0.424778 0.280858 0.653009 0.00655189 
0.281781 0.777677 0.267435 0.364492 0.577109 0.539481 0.514102 0.332622 0.145155 
0.533407 0.319987 0.29424 0.393905 0.544434 0.311956 0.806 0.0431218 0.440234 
0.344 0.750656 0.678809 0.495909 0.351317 0.229344 0.396188 0.592223 0.433327 
0.414771 0.530744 0.730831 0.492307 0.429176 0.43852 0.356176 0.578 0.249969 
0.369928 0.704597 0.647737 0.364197 0.673713 0.514738 0.418876 0.634801 0.575582 
0.806 0.0459985 0.52969 0.806153 0.0464116 0.539261 0.419455 0.435863 0.217199 
0.408186 0.497768 0.682545 0.382924 0.679458 0.50169 0.824029 0.105756 0.584766 
0.337614 0.77 0.460694 0.399694 0.575636 0.420385 0.376212 0.66972 0.416654 
0.330449 0.744428 0.569459 0.381395 0.654084 0.636447 0.326574 0.726 0.775204 
0.396006 0.568583 0.351943 0.288107 0.698042 0.357765 0.384005 0.667751 0.511235 
0.344436 0.577557 0.0325929 0.292858 0.732971 0.495751 0.426834 0.543883 0.525544 
0.613088 0.244918 0.288053 0.431417 0.571862 0.436255 0.408687 0.599932 0.533923 
0.525487 0.338 0.647165 0.370892 0.680009 0.609691 0.283673 0.798 0.766807 
0.693486 0.0516497 0.400911 0.519125 0.43044 0.335464 0.241045 0.884326 0.56921 
0.265127 0.863357 0.487746 0.474098 0.388954 0.352905 0.269748 0.757647 0.523796 
0.324769 0.634036 0.43802 0.233864 0.781991 0.544179 0.570766 0.314717 0.358514 
0.354299 0.570193 0.158064 0.241435 0.868 0.723444 0.317986 0.788965 0.624112 
0.340814 0.70646 0.557592 0.409208 0.65577 0.636844 0.298127 0.743217 0.706961 
0.489136 0.417637 0.37804 0.891167 0.162739 0.514732 0.419068 0.570912 0.431126 
0.413282 0.62895 0.185489 0.481857 0.484107 0.518411 0.456815 0.397971 0.629272 
0.2497 0.793045 0.615443 0.371398 0.499676 0.203978 0.294214 0.743673 0.661509 
0.420413 0.600573 0.403559 0.280101 0.682959 0.00169079 0.756 0.0316534 0.655657 
0.421179 0.664807 0.659885 0.349601 0.745722 0.575713 0.589297 0.257513 0.315186 
0.232318 0.836754 0.446453 0.409872 0.522432 0.384711 0.372 0.504552 0.344535 
0.453583 0.501098 0.391724 0.272417 0.860642 0.485065 0.502 0.47306 0.311819 
0.490272 0.412381 0.368365 0.413975 0.574612 0.398717 0.362406 0.670946 0.449915 
0.412001 0.690259 0.180786 0.232852 0.887176 0.649724 0.443272 0.451308 0.407726 
0.890874 0.158296 0.474984 0.39395 0.691809 0.479037 0.626036 0.218738 0.310053 
0.421937 0.437569 0.367932 0.2807 0.748085 0.616698 0.522953 0.382149 0.314237 
0.82395 0.106409 0.614884 0.454 0.528503 0.607269 0.428367 0.556574 0.626208 
0.522915 0.331697 0.305821 0.342126 0.687535 0.495937 0.363388 0.66703 0.52948 
0.888217 0.170009 0.598179 0.241249 0.849785 0.411277 0.390727 0.671154 0.454349 
0.441473 0.598132 0.0890352 0.613238 0.230532 0.355615 0.481948 0.466097 0.557175 
0.493668 0.37106 0.533269 0.402561 0.569268 0.631389 0.548883 0.411996 0.153419 
0.41004 0.690282 0.194244 0.373028 0.692476 0.479763 0.500594 0.375138 0.698446 
0.26917 0.80152 0.382712 0.787881 0.116 0.806038 0.367253 0.679877 0.402119 
0.824103 0.105888 0.59439 0.562 0.356086 0.123214 0.216377 0.86223 0.566548 
0.715471 0.0240114 0.204103 0.30801 0.784796 0.565477 0.327084 0.62349 0.295713 
0.823559 0.105509 0.561983 0.287757 0.81566 0.592741 0.272536 0.815134 0.736009 
0.340164 0.608 0.167431 0.398709 0.675999 0.553878 0.563468 0.289878 0.269114 
0.276497 0.853427 0.434993 0.27713 0.801931 0.472543 0.40905 0.685996 0.404674 
0.390615 0.655449 0.350157 0.294507 0.844557 0.269248 0.347845 0.61166 0.477268 
0.492209 0.383572 0.350422 0.481951 0.269934 0.00335575 0.402203 0.538945 0.270846 
0.805009 0.0459993 0.508098 0.47309 0.396647 0.363657 0.417191 0.657647 0.434204 
0.237892 0.936057 0.668139 0.233707 0.892 0.617633 0.450318 0.380787 0.121894 
0.360781 0.666503 0.526753 0.427829 0.411841 0.215372 0.556 0.362244 0.217067 
0.80734 0.0439999 0.476784 0.222203 0.898021 0.579377 0.256594 0.73387 0.103503 
0.463932 0.456245 0.579075 0.398028 0.62 0.758104 0.583558 0.261037 0.213383 
0.47 0.307885 0.174486 0.433996 0.392943 0.112398 0.44 0.380842 0.086178 
0.435931 0.593219 0.451579 0.36867 0.659676 0.555673 0.586012 0.281462 0.741776 
0.318618 0.631073 0.0964054 0.31569 0.761423 0.69703 0.281712 0.781604 0.300499 
0.568 0.299246 0.66834 0.402422 0.679152 0.475887 0.358649 0.701482 0.410119 
0.356191 0.566014 0.187688 0.890938 0.163561 0.523394 0.403736 0.463959 0.22907 
0.343321 0.672993 0.379225 0.546927 0.233993 0.0587147 0.259425 0.789597 0.381123 
0.379471 0.432073 0.0125278 0.268601 0.796807 0.261842 0.548714 0.278 0.137831 
0.427445 0.583759 0.628075 0.373886 0.49639 0.357591 0.508618 0.269643 0.181404 
0.4439 0.38971 0.162441 0.398 0.525044 0.750748 0.59359 0.244827 0.301171 
0.448165 0.424622 0.161534 0.408787 0.537399 0.223964 0.340283 0.684002 0.515351 
0.515636 0.411901 0.356549 0.263854 0.783287 0.398936 0.388287 0.68213 0.612387 
0.279926 0.701246 0.120261 0.426207 0.547781 0.602781 0.40108 0.626 0.713197 
0.403245 0.667336 0.439389 0.204373 0.839836 0.569048 0.824034 0.10599 0.602838 
0.891451 0.161496 0.501566 0.30731 0.821993 0.587333 0.41092 0.569146 0.474327 
0.887697 0.170576 0.613514 0.825821 0.108375 0.669469 0.406392 0.638479 0.639781 
0.525989 0.313903 0.154835 0.39139 0.479295 0.394683 0.889586 0.167796 0.567224 
0.230862 0.845025 0.563356 0.558919 0.27963 0.138949 0.369395 0.508104 0.52903 
0.343142 0.70005 0.420481 0.507986 0.34391 0.210516 0.223748 0.789985 0.158185 
0.399421 0.602758 0.617817 0.423753 0.509654 0.565875 0.39733 0.536 0.689601 
0.867267 0.138534 0.420166 0.282215 0.779281 0.461856 0.238031 0.81756 0.400122 
0.416036 0.522406 0.766259 0.358499 0.658001 0.91659 0.890805 0.158395 0.474141 
[...]
POINT_DATA 14181
VECTORS vectors float
-0.0117797 -0.0095437 -2.46246e-05 0 0 0 0 0 0 
0 0 0 0.0189369 0.0188445 -2.37859e-05 0.00494718 -0.00182582 7.89977e-05 
0.00187445 -0.00303674 3.37054e-05 0.0128255 -0.00780418 4.35575e-06 0 0 6.24099e-06 
4.74313e-05 -8.6157e-06 6.33546e-07 0 -1.55961e-05 2.98685e-07 0.00489176 -0.00586826 -1.11676e-05 
0 0 -3.53432e-07 0.0188969 0.0196064 -2.40592e-05 0.00135229 -0.0230592 1.11055e-05 
-0.00798714 0.00953662 -1.81569e-05 1.4531e-05 2.40905e-06 7.70858e-08 5.95274e-05 8.12122e-05 9.18743e-07 
0 0 -5.74812e-05 0.00139145 0.000774778 4.34058e-05 0 0 -2.65386e-06 
-0.00285833 -0.00863083 -3.04457e-05 0 0 -1.03972e-05 0 0 -2.72881e-08 
0 0 3.88998e-06 0 -2.51165e-05 -9.60237e-08 0 0 5.48955e-07 
-0.00455285 0.00307925 -1.85734e-05 -0.00285823 0.00468314 -2.87679e-06 -0.0112999 0.00691285 7.58742e-08 
-0.00554349 0.0108415 -4.36119e-06 0.00439485 -0.0186062 1.66661e-05 0 0 4.38938e-06 
-0.00593541 0.0139378 -1.92572e-05 0 0 -2.35936e-08 0 0 -1.69433e-05 
0 0 -5.37524e-06 0.00983655 -0.00973409 -5.25652e-05 0 0 5.1621e-06 
0.00307879 -0.00366916 5.21076e-05 0 0 0 0.000432302 0.000141899 1.78245e-05 
-0.000981584 0.00494438 -4.19757e-05 0 0 -5.42768e-06 -0.00433204 0.00616069 2.20062e-06 
0 0 0 -0.00472426 0.0103028 1.98102e-06 0.0171039 -0.0163788 -1.03167e-05 
0 0 -2.17261e-05 0 0 -1.39854e-06 -0.00252176 0.000950929 2.11069e-05 
0 -1.82352e-06 7.8905e-09 -0.00541283 0.00570909 -1.62858e-05 0 0 -1.13845e-06 
0.00514176 -0.00818459 -2.62921e-05 0.00281866 0.00934614 2.18864e-05 0 0 0 
-0.00055241 0.0033131 1.66947e-05 -0.00216937 0.00192243 -2.1466e-05 0 0 3.09691e-05 
0.0100877 -0.00286631 -1.02237e-06 0 0 -3.78504e-05 -0.00335692 -0.00348325 -4.92202e-05 
0.00467758 -0.0235695 1.10351e-05 0 0 -4.21095e-06 0.00103544 -4.13363e-05 1.25129e-05 
0.000184973 0.00259142 2.92298e-05 -0.00568134 0.0109099 -3.51021e-05 -0.00562915 0.00301038 -3.7967e-05 
-2.01451e-05 -7.11371e-06 -1.93572e-07 0 0 -6.51717e-07 0 0 1.91059e-06 
-0.000184797 0.000399182 1.75426e-05 0 0 0 0 0 0 
0.000313304 0.000467939 3.24968e-05 0.00340603 -0.00614765 -6.09211e-05 0 0.000430663 6.89192e-07 
0 0 5.68612e-06 0 0 -1.12296e-05 -0.00466716 0.00659254 -3.82627e-05 
0 0 3.71142e-05 0 0 3.13708e-05 -0.00414968 0.00986686 -7.25436e-05 
0 -6.03444e-06 2.81296e-07 0.000651028 0.00889113 -4.97204e-05 -0.00115174 0.00150056 -3.88048e-05 
-0.00238643 -7.4413e-05 -1.08325e-05 0 0 1.00565e-05 -0.00985571 -0.00232554 -1.47044e-07 
0.00143424 -0.00142168 5.23841e-06 0 -1.26206e-07 -4.21434e-07 0 0 3.29869e-06 
3.86537e-06 0 1.21907e-08 0 0 4.33193e-05 -0.000413861 0.00771902 -2.07534e-05 
0.00239857 3.08794e-05 1.24297e-05 0.00226842 -0.00653996 -1.02185e-05 0 0 -5.84346e-07 
0.00152907 -0.00320008 4.18568e-06 0 0 -1.47964e-07 0.0084313 -0.00182851 5.64128e-05 
-0.0129534 -0.000341621 -1.68159e-05 0 0 5.45953e-09 0 0 0 
-0.00352848 0.0113735 -9.87324e-06 -0.00106027 0.00489318 -6.20892e-05 0 0 -1.0681e-08 
-0.000422989 0.00158619 -2.71582e-06 0.00284624 0.00174669 4.65747e-06 -0.0141935 0.00745612 -1.18066e-06 
-0.00938612 0.00944238 -1.32058e-05 2.73685e-05 3.77021e-05 -4.41622e-05 0 0 -6.71727e-05 
0.00270637 0.0015991 5.26142e-06 -0.000174271 -0.000598328 1.97954e-05 0.000865588 0.00246784 -1.59483e-05 
-0.000348277 0 -5.00903e-07 0 0 1.43371e-05 -0.00341687 0.0086191 -2.13681e-05 
0 0 0 0 0 5.72066e-07 0 0 0 
0 0.000173361 7.79056e-06 0 0 -9.4054e-07 0 0 0 
0 5.43822e-07 2.57516e-09 -0.00424707 -0.000589211 -6.23192e-05 0.00495053 -0.00339736 -2.26631e-05 
0.00131064 0.00789711 5.60673e-05 0.00119912 0.0145004 1.02733e-05 0 0 -1.26447e-05 
0.00133688 0.00732896 -1.76771e-05 0.00151217 -0.00531073 1.29961e-05 0.000240878 -0.000939446 8.34656e-06 
-0.000200127 0.000135988 -3.41781e-07 -0.00207643 0.000964949 1.57415e-05 0 0 4.15771e-05 
0 0.000320364 -2.14582e-06 0.0107653 -0.00226041 0.000130347 -0.0220013 0.00119059 4.42397e-05 
0.00229345 0.00876419 -1.16113e-05 0 0 0.000110503 0 0 -8.24564e-07 
-0.0127708 -0.00601019 -2.62324e-05 0 0 -7.95645e-07 0 0 1.14198e-05 
-0.00133773 0.00313364 -1.68307e-05 0.00220087 0.00332745 3.99301e-05 0 0 0 
0.00067726 -0.00147597 -3.63865e-06 0.00271631 -0.000971782 -6.83065e-05 -1.7523e-05 9.3128e-06 -7.84328e-08 
0.00511771 0.0039143 -3.12834e-05 -0.00938705 0.00138975 -1.33066e-06 4.29318e-05 0 1.34556e-06 
-0.00587852 0.0118334 1.0815e-05 0 0 -3.35119e-05 0 0 -2.27595e-05 
4.92709e-05 0.00107113 -4.63387e-05 0 0 0 0 0 -1.21097e-09 
0.0027213 -0.000707389 2.70076e-05 0.000828302 -0.0205062 -3.75287e-05 0 0 4.22433e-07 
0 0 5.08133e-05 0.00563757 -0.0165853 -2.09105e-05 0 0 -0.00010581 
0 0 0 0 0 1.24513e-05 0.00121015 0.0185033 1.58047e-05 
-0.00384525 -0.00818316 -0.00010739 0.00841888 -0.00592703 3.6831e-05 0 0 1.59385e-06 
4.08977e-05 0 3.68056e-07 -0.00489989 0.00947794 1.5614e-05 -0.000599653 -0.000304896 2.11215e-05 
0 0 -8.29192e-05 0.00261409 -0.000283878 -8.59737e-05 0 0 -6.33193e-05 
0 0 -1.92217e-06 0.00240425 0.00249318 3.48401e-05 -0.00459443 -0.00485304 -3.94084e-05 
0 0 0 -0.00409182 0.00862142 1.6288e-05 0.00279225 0.00201179 -1.6426e-06 
-0.0012922 0.00546356 -4.0415e-05 -0.00819413 0.00641815 -4.5255e-05 0 0 0 
-0.0068784 -0.0126522 -3.89345e-06 0 -1.17235e-06 -1.80718e-07 -0.00100649 0.00544118 -2.3937e-05 
0 0 -2.80678e-06 -0.00642373 0.0112403 3.03324e-05 -0.0142279 0.00218996 -0.000108279 
0.0541313 -0.107199 0.000126398 -0.00236394 0.00401358 3.97083e-05 0.00255592 0.00177532 -8.11423e-06 
0 0 -0.000152907 -0.00222073 0.00524846 6.8806e-05 0 0 0 
0 0 -0.000231178 -0.0124125 0.0135592 -3.22324e-06 0.001105 0.00139723 6.07093e-06 
0.00929192 -0.00350035 0.00010379 -0.00643047 -0.0210988 -1.68999e-05 0.00382326 0.000517686 2.18346e-05 
0 -4.64659e-06 8.62744e-07 0 0 -9.82147e-05 0.00537343 -0.00175061 -1.43794e-05 
0 0.000118742 -4.72263e-07 0 0 0 8.30073e-06 0 -1.13696e-07 
0.00107626 0.000483803 -3.43618e-05 0 -3.63289e-05 -1.57011e-07 0 0.000405125 -4.67119e-08 
0.00247455 -0.0135188 3.32082e-05 0.000636564 7.94668e-05 1.55003e-05 -0.0047881 0.000298597 3.13356e-05 
-0.0014795 -0.0258665 1.31289e-05 -0.000104172 1.21925e-05 -6.64203e-07 1.00184e-05 1.17738e-05 2.90919e-07 
-0.000274374 0.00361943 -1.01111e-06 0 0 2.56341e-06 0 0.00151963 -7.68205e-07 
-0.000706447 0.00107884 4.14525e-05 -0.00117952 0.0131606 -1.09735e-06 0 0 0 
0 0 -9.59968e-09 6.69001e-05 5.26514e-05 6.53347e-07 0 0 -1.03081e-05 
0.00160399 -0.00127176 3.83016e-05 0.00168984 0.0168452 -4.72283e-05 0 0 0 
-0.0110313 -0.00251263 1.46405e-05 0.00642604 -0.00320459 7.92702e-05 0 0 0 
0.00173098 -0.0187349 2.2052e-05 -0.00345793 -0.00558311 3.89538e-05 -0.00615214 0.010148 -5.81754e-06 
-1.22564e-06 7.74734e-07 2.78902e-06 -0.00481638 0.00259295 -2.17231e-05 0.0110127 -0.0012244 -2.99421e-05 
0.005234 -0.00346979 9.30333e-06 7.37355e-06 -3.80169e-06 3.01127e-08 0 0 7.64405e-08 
0 0 -2.22635e-05 0.00113709 7.97226e-06 -1.57118e-06 0.00936699 -0.00551582 -3.72912e-05 
-0.00285356 -0.00230223 -4.98046e-05 0 0 0 -0.000421373 0.00479402 5.54394e-06 
0 0 2.40211e-06 -0.00836119 0.00403071 -3.27029e-05 -0.00567267 0.0118062 1.42827e-05 
-7.59806e-05 1.19013e-05 4.10751e-05 -0.00845448 0.000528934 9.24505e-05 0.00244019 0.00412019 1.86199e-05 
-0.000284175 0 -4.13598e-07 0.0265962 -0.0656615 6.85329e-05 -9.62261e-05 7.26154e-06 -7.71158e-07 
0 0 -6.31181e-05 -0.000662015 0.00571439 -1.91556e-06 0 0 -0.000119595 
0 0 4.60179e-08 0.00320238 -0.00210433 5.23804e-05 0 0 -4.04275e-06 
-0.0118102 -0.00724339 1.1618e-06 0 0 -9.34643e-05 -0.00567952 -0.000118663 1.8972e-05 
-0.00366525 -0.00435262 -4.53013e-05 0 0 -2.72695e-06 0.00414381 0.00525806 -3.43208e-05 
0 0 -6.06642e-08 0.000914986 0.00600197 -2.12604e-05 0 0 -0.000210546 
-0.0117329 -0.00951322 -2.46788e-05 -0.00171768 0.0011339 1.23201e-05 -0.00106318 0.00105611 1.4512e-05 
0 0 -1.31863e-06 0 8.57813e-08 -3.66802e-10 0 0 9.12127e-05 
0.00703739 -0.00523562 0.000106362 -0.00766889 0.00786778 3.13495e-05 9.91178e-07 7.77158e-07 9.61879e-09 
0.0117614 0.000905736 -1.63554e-05 0 0 6.24911e-06 -4.64499e-05 -0.00503821 1.51607e-05 
0.00765468 -0.0407994 -5.08316e-05 0 0 -3.42202e-07 0.0189015 0.019587 -2.40515e-05 
0 0 -5.04581e-05 -0.00843104 -0.018713 1.79646e-05 0.0011755 -0.00326599 3.51155e-06 
3.02896e-05 8.19843e-05 -1.31005e-07 0 0 0 0 0 8.4159e-06 
-0.00660241 0.0107754 -2.84997e-06 0 0 -1.00018e-05 0 0 2.15329e-06 
0.00137075 0 -8.11714e-05 0 -4.51637e-05 -4.57092e-07 0 0 1.64827e-05 
0.0096199 -0.0155038 7.26392e-05 0 0 0 0 0 1.49787e-05 
0 0 0 0 0 1.16093e-05 0 0 -5.99119e-06 
-0.00010276 5.91006e-05 -1.73293e-06 -0.0113508 0.0095892 -1.45477e-06 4.13492e-05 0 2.90011e-07 
0 0 -1.69535e-05 -0.00228986 0.00111881 9.2998e-05 -0.00412041 9.19466e-05 1.53978e-05 
0 0 -8.00283e-06 0.00143248 0.000395779 3.1511e-06 0.00468071 -0.00388864 1.38077e-05 
0 -3.05103e-06 -2.17697e-06 0.000440064 0.000136564 1.77237e-05 0 0 -3.75503e-05 
-0.00894827 0.00351096 -2.18666e-05 0 0 3.91052e-07 0.00259598 -0.0153193 -1.18767e-05 
-0.000471943 -5.2859e-05 -1.43815e-06 -0.0150399 -0.0346182 7.21058e-06 0 0 0 
0.00201798 0.00537885 3.88089e-05 0 0 -4.21776e-06 0 0 -1.37486e-05 
0 0 0.000105954 0 0 -5.65596e-07 0 0 -1.02922e-05 
-0.0148383 0.0453284 1.55092e-05 0.0245646 0.0470687 -1.95077e-05 -0.010063 0.00337199 -2.47867e-05 
0.00352965 -0.00105201 -1.0344e-05 0.00224753 -0.00613905 -1.55077e-05 -1.34433e-05 0 -1.22061e-08 
0 0 -1.69439e-05 -0.0122176 0.00144577 -7.44899e-06 0 0 0 
0.00376101 0.0013826 8.45079e-06 0.000100493 0.000267343 -2.05204e-05 -0.00335511 -0.00348345 -4.92191e-05 
0.00105812 -5.65096e-05 1.24359e-05 -2.00883e-06 9.57572e-06 2.71334e-07 -0.00561825 0.00581374 1.30682e-05 
-0.000203316 0.000257523 4.26984e-05 -0.00204713 -0.000584943 -1.44979e-05 -2.0777e-06 -3.28557e-05 -6.10996e-08 
0 0 3.23347e-05 0.0240502 -0.00302276 -1.04611e-05 0.000304891 0.000467198 3.22026e-05 
0.00534763 0.00791937 4.58089e-06 0 0.00144495 1.22362e-05 0 0 -1.12272e-05 
0.000325301 0.00616022 -3.75471e-05 0 0 2.62605e-05 0 0 -2.09489e-06 
0.00389606 0.00697887 -7.40985e-05 0.00374984 -0.00186736 -6.17041e-05 0 0 0 
0.0404889 -0.151431 5.56676e-05 -0.0044096 0.00766038 -1.32649e-05 0.000266335 -0.0096564 2.69799e-05 
-0.00246339 -0.0104707 -0.000151406 0 -1.27027e-07 -4.24177e-07 0.00422079 -0.0043001 9.53501e-06 
0 0 4.54967e-05 0.0205735 -0.0177486 1.55929e-05 -0.00240974 -0.108945 -1.87924e-05 
0 0 4.33359e-05 -6.09104e-05 0.0140435 -6.90385e-05 0 0 -1.86481e-06 
-0.00120078 -0.00459864 -3.13816e-05 0 0 -4.42739e-07 0 0 3.0166e-06 
0.00371883 0.0038743 -1.73745e-05 0.00818608 -0.00385085 1.16924e-05 0.0202986 0.0162352 -2.35309e-05 
3.92941e-05 0 2.76827e-07 -0.00248853 0.0125759 -9.43843e-06 -0.00351653 0.00769964 -6.85365e-05 
-0.0129757 -0.0230845 1.01468e-05 0.00216785 0.00210729 3.60435e-05 0.00284068 0.00173841 4.69317e-06 
0.00201007 0.00516535 -3.89784e-05 0 0 0 -0.00109797 -0.00348406 3.78066e-06 
0.00179136 -3.17209e-05 1.35171e-05 0 0 -0.000206787 0.00268918 0.0015838 5.31119e-06 
0.00583196 0.000136065 2.45926e-05 0.000874598 -0.00180944 -1.88971e-05 -0.00275018 0.010487 1.35169e-05 
0.000813236 6.61931e-06 1.36282e-05 4.42321e-06 -2.05791e-06 6.87437e-09 -0.000972588 0.00419398 -1.96214e-05 
3.12903e-05 2.53376e-05 4.10682e-07 0 0 5.99049e-07 0 9.61703e-05 1.19374e-05 
0 0 -9.4309e-07 0 0 0 -0.00871029 -0.00505313 -4.20544e-06 
0.00337217 0.00728855 5.47504e-05 -8.14766e-05 0 1.56271e-05 0 -5.02209e-06 4.26108e-06 
-0.00642654 0.00813371 -7.30976e-05 0 0 0 0.00205741 0.000871717 3.25501e-05 
0.00365049 0.0106816 5.88935e-05 7.64064e-06 0 -7.40759e-06 0 0 0 
0.00319288 0.00220824 2.72367e-06 -0.00128296 -0.000419938 -9.34423e-06 -0.00764047 0.00783157 -3.02652e-05 
0 0 6.0984e-06 -0.000324495 0.000117468 -4.15541e-06 0.00162662 0.0105114 5.59706e-05 
0 0 9.6576e-06 -0.00206251 -0.00132089 -3.62896e-05 0.00285252 0.000252989 1.84264e-05 
-0.00138473 -0.00331497 5.89036e-06 0 0 9.88038e-06 0.00224971 0.00861832 -1.2174e-05 
0 0 0.000108745 0 0 -8.24292e-07 0.000296453 0.000475182 3.0626e-05 
0 0 -7.92732e-07 0 0 2.22314e-07 0.000146858 0.00051424 3.19714e-07 
8.66273e-05 0.000113508 4.01317e-05 0.0111416 -0.00569731 -2.68625e-05 0.000636383 -0.00138694 -3.41931e-06 
0.00643394 -0.00452961 2.65139e-05 0 0 1.34824e-05 -0.0013734 0.0047574 3.80692e-05 
0.0104861 -0.00807226 -7.10543e-05 -0.0010327 0.0116503 -3.28572e-05 0 0 -2.19703e-05 
0.019371 -0.0254501 1.14033e-05 1.42589e-06 7.68926e-07 4.05092e-08 0 0 -1.59598e-05 
0 0 0 0 0 2.54068e-05 0.00205112 -0.0340109 7.72928e-06 
-0.00235912 0.0112408 9.45584e-05 0 0 3.69428e-05 0 0 6.74704e-06 
0 0 -8.65373e-05 -0.0066147 0.0107552 -1.13935e-05 0.00070798 0.000834031 8.3595e-07 
-0.00175791 0.00011351 -1.38991e-05 0 0 1.50197e-05 0.00271802 -0.00168609 8.73047e-06 
0 -0.000121257 -3.60065e-06 0.000134683 -0.000140741 1.03626e-06 0 0 3.75111e-06 
0 0 -1.95246e-05 0 0 -9.85043e-06 0 0 -1.92118e-06 
0.00358955 0.000372184 -5.70945e-06 -0.00459464 -0.0048536 -3.94032e-05 0.000339499 0.00148852 1.77179e-05 
0.00328609 -0.00095186 3.57881e-05 0.00765162 0.00585477 -5.6937e-05 0 0 0 
-0.00195949 0.00367451 -3.75345e-06 -0.00568578 0.00530475 -1.4987e-05 0 0 -1.67712e-05 
0.00352698 -0.0101725 9.81438e-06 -9.60485e-06 0 2.034e-06 -0.000717158 0.0161769 -2.61648e-05 
0.00300343 0.00316179 -5.6376e-06 0.000436289 0.000483197 3.46608e-05 -0.000486025 0 -2.66674e-06 
0 0 8.51719e-07 0 0 1.62852e-05 0.00077716 0.00288243 5.6807e-05 
-0.000755988 0.00258813 2.1625e-05 3.50098e-05 -9.02413e-06 5.48197e-06 0.000758601 -0.00709385 -0.000202854 
0.00107272 0.0041123 4.87999e-05 0 0 3.49399e-07 0 0 4.69409e-06 
0 0 0 0.010352 -0.00274254 -1.65922e-05 -0.00265721 0.0280058 -7.08382e-05 
0.0012044 -0.00461902 -6.33728e-05 0 0.00042956 -8.2233e-05 0.0122703 0 -4.93174e-05 
-0.0011645 0.00338216 4.10929e-06 -0.000445751 0 -2.12749e-06 0.00419011 -0.00454196 -8.39597e-05 
0.031685 -0.0906074 0.000173724 0 0 0 -0.0102624 0.018513 -1.14027e-05 
0 -0.000331687 4.08775e-06 -0.000666227 0.00233373 1.05596e-05 -0.000535418 -0.00155835 6.36868e-06 
0 0 3.62626e-05 -2.16934e-06 3.68246e-06 1.05622e-08 0 0.000418869 -6.16348e-07 
-0.00226243 -0.00172292 -2.87936e-05 0 0 -2.7418e-06 0.000630165 8.20498e-05 1.55789e-05 
-0.000397907 -5.0271e-05 -8.39384e-07 -0.00300328 0.00269061 -4.17621e-05 -0.00131763 0.000409785 -6.84143e-06 
0 0 0 0 0 -0.000142508 3.55308e-07 -1.30483e-07 -1.76827e-09 
-0.00239944 0.00378022 -6.06154e-05 0 0 1.80714e-06 0 0 0 
-0.000313782 0.00689139 -4.00583e-05 0 0 -1.07163e-06 7.39348e-06 0 -2.83597e-08 
0 0 -9.59968e-09 0.000899655 -0.000207644 1.14273e-05 0.00464287 -0.00287285 3.85207e-05 
0 0 -5.48212e-07 -0.0018062 0.00689339 -1.29441e-05 0.00637285 -0.0405583 -2.3646e-05 
0.01607 0.0103427 -2.39853e-05 0 0 6.13535e-07 -7.2292e-06 7.15048e-06 -4.31351e-09 
-0.00539047 -0.00727119 8.2825e-06 0.00143287 0.000480666 5.67413e-05 -0.00308741 -0.00237767 4.54984e-05 
-0.0136117 0.00404483 -8.88552e-06 0.000533776 0 1.13304e-05 0.00551507 -0.00203999 1.06821e-05 
-0.00374029 0.00771774 -1.2698e-05 0 0 0 0 0 5.69026e-06 
0 0 4.30455e-05 0.00819772 -0.00657741 7.25399e-06 0.000491177 0.000279841 -6.29062e-06 
0.0166509 -0.0205096 -1.8079e-05 0.000452084 0.000410074 1.2195e-05 -0.0028525 -0.0023024 -4.9804e-05 
0 0 8.44336e-05 -0.000250867 0.000334321 4.29796e-05 -0.00360543 0.00136064 7.86343e-06 
0 0 -1.46722e-06 0.000947354 0.0087062 8.21043e-05 0 0 -6.27628e-06 
0.00317326 0.00207616 9.51217e-07 -0.0109217 0.00859825 -6.11897e-06 -0.000914439 0.000353343 0.00014159 
0.000280217 0.000304345 3.81289e-05 -0.00223416 0.0042123 4.95112e-05 -0.000286787 5.18223e-05 -1.34009e-06 
-0.00250996 0.00113414 -1.42252e-05 -0.00890093 0.00753631 -2.63262e-05 0.00264764 0.00851974 -1.95343e-05 
-0.00768623 -0.0296224 1.41848e-05 0.00458827 0.040811 1.21595e-05 0 0 7.13735e-06 
-0.00361069 0.00134506 7.909e-06 0 0 -4.03845e-06 0.00922649 -0.021797 -4.13838e-05 
0 0 -7.72307e-05 -0.00452853 -0.00573024 3.79709e-05 -0.00366549 -0.00435329 -4.52955e-05 
0 0 -7.77589e-05 0.0101796 -0.0012246 -2.46321e-05 -0.00514456 0.00736379 2.18292e-05 
-0.0131992 -0.00501942 -2.70716e-05 0 0 0 0.000426338 -0.000996362 -6.31196e-06 
-1.30742e-06 2.67795e-06 8.35339e-09 -0.0261261 0.0374117 3.90462e-05 0 9.95426e-06 -4.25646e-08 
0 0 9.9279e-07 0.0106048 -0.020572 -1.40025e-06 0 0 -1.10107e-05 
0.00408289 0.00757579 -2.20943e-05 0 0 -6.58321e-05 0 0 2.70349e-06 
0.0151003 -0.0120215 1.37487e-05 0 0 6.25202e-06 7.79181e-06 0 -2.75988e-08 
0.00405282 -0.0123327 8.57192e-06 0.0270038 -0.0843712 0.000115025 0 0 -3.53147e-07 
0.0188972 0.0195546 -2.40345e-05 0 0 -4.81426e-05 0.0126594 -0.00613077 8.26196e-06 
-0.00459297 -0.00272954 7.7001e-06 0 0 -7.08359e-06 0 0 4.02093e-06 
0.000863134 0.00024872 4.46521e-06 -0.0072083 0.00738862 -3.39391e-05 0.000403953 -6.20748e-07 8.9908e-06 
0.0359069 -0.0450559 0.000152704 -0.0141272 0.00781538 -5.36612e-05 0.0019325 0 -0.000103199 
0.000327016 0.00314768 -5.13398e-05 0.0172466 0.0036446 -2.82508e-05 0.00754148 -0.00440779 -3.06053e-05 
-0.00145122 0.000757282 3.37058e-05 0 0 -3.65899e-07 0 0 0.000114673 
-0.0123067 0.00442591 -8.14713e-06 0 0 0 0 0 -4.15961e-05 
-0.00871392 0.00805841 -8.50151e-05 0.0038058 -0.0182036 1.67693e-05 0.0213779 0.045008 -1.76884e-05 
-0.00808103 0.00720661 -3.37426e-05 0 0 -2.38285e-08 0 0 -1.70016e-05 
-0.00261117 0.00689743 7.44296e-05 -0.00111299 0.0407864 -1.10235e-05 0.00530218 -0.0110887 -0.00016998 
-0.0198696 0.0294713 -2.24456e-05 -0.000664652 0.00325296 -2.45907e-05 -0.00387391 -0.00227644 3.84574e-05 
-0.00104273 -0.0022034 5.10611e-06 0 0 3.69491e-05 0.0374236 -0.0346919 -1.18772e-05 
0.000440058 0.000139269 1.77188e-05 0 0 -6.76702e-05 0.0167042 -0.0148098 3.34226e-05 
-0.0053625 0.00453389 0.000117823 0.00362675 0.0168064 4.68545e-06 0.0102729 -0.0568878 6.47369e-06 
0 0 -3.96131e-07 -0.00493996 0.0100587 -7.67947e-06 0.0069021 -0.0851741 2.66206e-05 
0 0 -1.78722e-05 -0.00441238 0.00256945 2.55917e-05 0 0 0 
0 0 0 -0.00796465 0.00687089 -3.71886e-05 0.00219708 -0.000413002 4.59254e-06 
-0.00346426 0.00840261 6.67108e-06 -0.00252256 0.000472727 -4.29961e-05 -0.000742169 0.00277285 -6.231e-05 
0.000452595 0.000396748 5.90379e-06 -0.000702245 0.00377683 3.72498e-05 0.00236717 0.00351658 -1.63249e-06 
0.00437475 0.00443152 -3.84459e-05 -0.00335203 -0.00347843 -4.92246e-05 0.00105217 -5.40879e-05 1.24631e-05 
0.000707997 4.36657e-05 2.34605e-05 -0.00704535 0.00315684 -0.000103163 0.00594308 0.00578718 -3.18102e-05 
-0.00204291 -0.000578023 -1.44064e-05 7.62442e-06 -0.000444592 -2.85622e-06 -0.0277273 0.0315128 -5.52783e-06 
0.00494615 -0.00695473 -2.10508e-05 1.74521e-05 -3.62314e-05 -1.1982e-07 0.00573693 -0.00556994 7.29496e-05 
0 0 0 0 0 -1.12244e-05 0.00270793 0.00445344 -3.39701e-05 
0 0 2.77791e-06 0 0 7.53149e-06 -0.000513204 -0.00275827 -3.49717e-06 
0.0013272 -0.00357995 -0.00010154 4.24518e-05 0 1.92892e-07 0 0 -7.93857e-06 
-0.00816498 0.00184151 3.1802e-05 0.0155901 -0.0132414 7.71051e-07 -0.00872037 0.00742981 -5.74033e-05 
0 -2.55244e-07 -4.27671e-07 0 0 -4.85063e-09 2.57e-05 0.000699729 3.92603e-05 
-0.00102005 0.0261494 -3.15586e-05 0 0 8.92146e-05 0.0336932 -0.0450392 4.91671e-05 
0.0243465 -0.0239114 3.24717e-05 0 0 4.36647e-05 -2.30161e-06 6.04336e-07 -8.64262e-09 
0.00137112 -0.00563167 -1.86217e-05 0 0 2.63231e-05 0 -8.34657e-05 -4.96423e-06 
0 0 3.68122e-06 0.000114612 6.53671e-05 1.14155e-06 0 0 9.75669e-07 
0.000784804 0.00648197 -8.61758e-06 0 0 -2.68441e-05 -0.00217751 0.0100249 -0.000105174 
0 0 -2.85869e-09 -0.000585421 -5.05822e-05 4.93737e-06 0.000265221 0.00314495 -5.14991e-05 
0 0 6.99948e-07 0.00544065 0.0126935 -4.61453e-06 0.00284339 0.00174262 4.67884e-06 
0.00354662 -0.00484028 -1.40734e-05 0.00517447 0.000736463 -3.077e-05 0.00231918 -0.00269202 1.93189e-05 
0.00270303 0.00159428 5.27595e-06 0.00112496 0.00178348 -3.74599e-05 -0.00265291 0.0142491 -1.85257e-05 
0 0 6.80018e-05 0.0137332 -0.0015882 -2.3907e-05 0.000815313 1.15267e-05 1.36157e-05 
-0.00141843 0.00578708 3.82535e-05 2.07523e-05 -1.89087e-06 1.513e-07 0 -5.7234e-07 6.02972e-07 